 written on 12Oct2022 at 20:13:22 , onsiteshift=-0.0331, symmetrized, with spin, SOC(t2g)=0.175, octrot=0.785398 with field B=(0,0,0)
12
49
   1   1   1   1   1   1   1   1   1   1   1   1   1   1   1
   1   1   1   1   1   1   1   1   1   1   1   1   1   1   1
   1   1   1   1   1   1   1   1   1   1   1   1   1   1   1
   1   1   1   1
-3 -3 0 1 1 2.6e-05 0
-3 -3 0 1 2 2e-06 0
-3 -3 0 2 1 2e-06 0
-3 -3 0 2 2 4.5e-05 0
-3 -3 0 3 3 -0.000309 0
-3 -3 0 4 4 2.6e-05 0
-3 -3 0 4 5 -2e-06 0
-3 -3 0 5 4 -2e-06 0
-3 -3 0 5 5 4.5e-05 0
-3 -3 0 6 6 -0.000309 0
-3 -3 0 7 7 2.6e-05 0
-3 -3 0 7 8 2e-06 0
-3 -3 0 8 7 2e-06 0
-3 -3 0 8 8 4.5e-05 0
-3 -3 0 9 9 -0.000309 0
-3 -3 0 10 10 2.6e-05 0
-3 -3 0 10 11 -2e-06 0
-3 -3 0 11 10 -2e-06 0
-3 -3 0 11 11 4.5e-05 0
-3 -3 0 12 12 -0.000309 0
-3 -2 0 1 1 1.6e-05 0
-3 -2 0 1 2 2.275e-05 0
-3 -2 0 1 4 1.95e-05 0
-3 -2 0 1 5 4.175e-05 0
-3 -2 0 2 1 2.275e-05 0
-3 -2 0 2 2 -0.00013 0
-3 -2 0 2 4 -4.175e-05 0
-3 -2 0 2 5 -0.0001845 0
-3 -2 0 3 3 -0.0007985 0
-3 -2 0 3 6 0.0028475 0
-3 -2 0 4 4 -1.5e-05 0
-3 -2 0 4 5 -4.2e-05 0
-3 -2 0 5 4 -4.2e-05 0
-3 -2 0 5 5 -0.000119 0
-3 -2 0 6 6 0.000805 0
-3 -2 0 7 7 1.6e-05 0
-3 -2 0 7 8 2.275e-05 0
-3 -2 0 7 10 1.95e-05 0
-3 -2 0 7 11 4.175e-05 0
-3 -2 0 8 7 2.275e-05 0
-3 -2 0 8 8 -0.00013 0
-3 -2 0 8 10 -4.175e-05 0
-3 -2 0 8 11 -0.0001845 0
-3 -2 0 9 9 -0.0007985 0
-3 -2 0 9 12 0.0028475 0
-3 -2 0 10 10 -1.5e-05 0
-3 -2 0 10 11 -4.2e-05 0
-3 -2 0 11 10 -4.2e-05 0
-3 -2 0 11 11 -0.000119 0
-3 -2 0 12 12 0.000805 0
-3 -1 0 1 1 9e-06 0
-3 -1 0 1 2 -7.025e-05 0
-3 -1 0 1 4 2.575e-05 0
-3 -1 0 1 5 -1.125e-05 0
-3 -1 0 2 1 -7.025e-05 0
-3 -1 0 2 2 -7e-06 0
-3 -1 0 2 4 -0.0001595 0
-3 -1 0 2 5 -0.000504 0
-3 -1 0 3 3 -0.0014845 0
-3 -1 0 3 6 0.00092225 0
-3 -1 0 4 4 -1.1e-05 0
-3 -1 0 4 5 -7.5e-05 0
-3 -1 0 5 4 -7.5e-05 0
-3 -1 0 5 5 -3.3e-05 0
-3 -1 0 6 6 -0.000283 0
-3 -1 0 7 7 9e-06 0
-3 -1 0 7 8 -7.025e-05 0
-3 -1 0 7 10 2.575e-05 0
-3 -1 0 7 11 -1.125e-05 0
-3 -1 0 8 7 -7.025e-05 0
-3 -1 0 8 8 -7e-06 0
-3 -1 0 8 10 -0.0001595 0
-3 -1 0 8 11 -0.000504 0
-3 -1 0 9 9 -0.0014845 0
-3 -1 0 9 12 0.00092225 0
-3 -1 0 10 10 -1.1e-05 0
-3 -1 0 10 11 -7.5e-05 0
-3 -1 0 11 10 -7.5e-05 0
-3 -1 0 11 11 -3.3e-05 0
-3 -1 0 12 12 -0.000283 0
-3 0 0 1 1 -2.35e-05 0
-3 0 0 1 2 0.0001125 0
-3 0 0 1 4 -0.00011525 0
-3 0 0 1 5 0.00017225 0
-3 0 0 2 1 0.0001125 0
-3 0 0 2 2 2.35e-05 0
-3 0 0 2 4 0.0003645 0
-3 0 0 2 5 0.0004915 0
-3 0 0 3 3 -0.0018525 0
-3 0 0 3 6 -0.0014475 0
-3 0 0 4 4 2.35e-05 0
-3 0 0 4 5 0.0001125 0
-3 0 0 5 4 0.0001125 0
-3 0 0 5 5 -2.35e-05 0
-3 0 0 6 6 -0.0018525 0
-3 0 0 7 7 -2.35e-05 0
-3 0 0 7 8 0.0001125 0
-3 0 0 7 10 -0.00011525 0
-3 0 0 7 11 0.00017225 0
-3 0 0 8 7 0.0001125 0
-3 0 0 8 8 2.35e-05 0
-3 0 0 8 10 0.0003645 0
-3 0 0 8 11 0.0004915 0
-3 0 0 9 9 -0.0018525 0
-3 0 0 9 12 -0.0014475 0
-3 0 0 10 10 2.35e-05 0
-3 0 0 10 11 0.0001125 0
-3 0 0 11 10 0.0001125 0
-3 0 0 11 11 -2.35e-05 0
-3 0 0 12 12 -0.0018525 0
-3 1 0 1 1 -3.3e-05 0
-3 1 0 1 2 -7.5e-05 0
-3 1 0 1 4 0.0004915 0
-3 1 0 1 5 0.00017225 0
-3 1 0 2 1 -7.5e-05 0
-3 1 0 2 2 -1.1e-05 0
-3 1 0 2 4 0.0003645 0
-3 1 0 2 5 -0.00011525 0
-3 1 0 3 3 -0.000283 0
-3 1 0 3 6 -0.0014475 0
-3 1 0 4 4 -7e-06 0
-3 1 0 4 5 -7.025e-05 0
-3 1 0 5 4 -7.025e-05 0
-3 1 0 5 5 9e-06 0
-3 1 0 6 6 -0.0014845 0
-3 1 0 7 7 -3.3e-05 0
-3 1 0 7 8 -7.5e-05 0
-3 1 0 7 10 0.0004915 0
-3 1 0 7 11 0.00017225 0
-3 1 0 8 7 -7.5e-05 0
-3 1 0 8 8 -1.1e-05 0
-3 1 0 8 10 0.0003645 0
-3 1 0 8 11 -0.00011525 0
-3 1 0 9 9 -0.000283 0
-3 1 0 9 12 -0.0014475 0
-3 1 0 10 10 -7e-06 0
-3 1 0 10 11 -7.025e-05 0
-3 1 0 11 10 -7.025e-05 0
-3 1 0 11 11 9e-06 0
-3 1 0 12 12 -0.0014845 0
-3 2 0 1 1 -0.000119 0
-3 2 0 1 2 -4.2e-05 0
-3 2 0 1 4 -0.000504 0
-3 2 0 1 5 -1.125e-05 0
-3 2 0 2 1 -4.2e-05 0
-3 2 0 2 2 -1.5e-05 0
-3 2 0 2 4 -0.0001595 0
-3 2 0 2 5 2.575e-05 0
-3 2 0 3 3 0.000805 0
-3 2 0 3 6 0.00092225 0
-3 2 0 4 4 -0.00013 0
-3 2 0 4 5 2.275e-05 0
-3 2 0 5 4 2.275e-05 0
-3 2 0 5 5 1.6e-05 0
-3 2 0 6 6 -0.0007985 0
-3 2 0 7 7 -0.000119 0
-3 2 0 7 8 -4.2e-05 0
-3 2 0 7 10 -0.000504 0
-3 2 0 7 11 -1.125e-05 0
-3 2 0 8 7 -4.2e-05 0
-3 2 0 8 8 -1.5e-05 0
-3 2 0 8 10 -0.0001595 0
-3 2 0 8 11 2.575e-05 0
-3 2 0 9 9 0.000805 0
-3 2 0 9 12 0.00092225 0
-3 2 0 10 10 -0.00013 0
-3 2 0 10 11 2.275e-05 0
-3 2 0 11 10 2.275e-05 0
-3 2 0 11 11 1.6e-05 0
-3 2 0 12 12 -0.0007985 0
-3 3 0 1 1 4.5e-05 0
-3 3 0 1 2 -2e-06 0
-3 3 0 1 4 -0.0001845 0
-3 3 0 1 5 4.175e-05 0
-3 3 0 2 1 -2e-06 0
-3 3 0 2 2 2.6e-05 0
-3 3 0 2 4 -4.175e-05 0
-3 3 0 2 5 1.95e-05 0
-3 3 0 3 3 -0.000309 0
-3 3 0 3 6 0.0028475 0
-3 3 0 4 4 4.5e-05 0
-3 3 0 4 5 2e-06 0
-3 3 0 5 4 2e-06 0
-3 3 0 5 5 2.6e-05 0
-3 3 0 6 6 -0.000309 0
-3 3 0 7 7 4.5e-05 0
-3 3 0 7 8 -2e-06 0
-3 3 0 7 10 -0.0001845 0
-3 3 0 7 11 4.175e-05 0
-3 3 0 8 7 -2e-06 0
-3 3 0 8 8 2.6e-05 0
-3 3 0 8 10 -4.175e-05 0
-3 3 0 8 11 1.95e-05 0
-3 3 0 9 9 -0.000309 0
-3 3 0 9 12 0.0028475 0
-3 3 0 10 10 4.5e-05 0
-3 3 0 10 11 2e-06 0
-3 3 0 11 10 2e-06 0
-3 3 0 11 11 2.6e-05 0
-3 3 0 12 12 -0.000309 0
-2 -3 0 1 1 -1.5e-05 0
-2 -3 0 1 2 4.2e-05 0
-2 -3 0 2 1 4.2e-05 0
-2 -3 0 2 2 -0.000119 0
-2 -3 0 3 3 0.000805 0
-2 -3 0 4 1 1.95e-05 0
-2 -3 0 4 2 -4.175e-05 0
-2 -3 0 4 4 1.6e-05 0
-2 -3 0 4 5 -2.275e-05 0
-2 -3 0 5 1 4.175e-05 0
-2 -3 0 5 2 -0.0001845 0
-2 -3 0 5 4 -2.275e-05 0
-2 -3 0 5 5 -0.00013 0
-2 -3 0 6 3 0.0028475 0
-2 -3 0 6 6 -0.0007985 0
-2 -3 0 7 7 -1.5e-05 0
-2 -3 0 7 8 4.2e-05 0
-2 -3 0 8 7 4.2e-05 0
-2 -3 0 8 8 -0.000119 0
-2 -3 0 9 9 0.000805 0
-2 -3 0 10 7 1.95e-05 0
-2 -3 0 10 8 -4.175e-05 0
-2 -3 0 10 10 1.6e-05 0
-2 -3 0 10 11 -2.275e-05 0
-2 -3 0 11 7 4.175e-05 0
-2 -3 0 11 8 -0.0001845 0
-2 -3 0 11 10 -2.275e-05 0
-2 -3 0 11 11 -0.00013 0
-2 -3 0 12 9 0.0028475 0
-2 -3 0 12 12 -0.0007985 0
-2 -2 0 1 1 2.6e-05 0
-2 -2 0 1 2 0.000124 0
-2 -2 0 1 4 2.575e-05 0
-2 -2 0 1 5 0.0001595 0
-2 -2 0 2 1 0.000124 0
-2 -2 0 2 2 -0.0008955 0
-2 -2 0 2 4 1.125e-05 0
-2 -2 0 2 5 -0.000504 0
-2 -2 0 3 3 -0.0077885 0
-2 -2 0 3 6 0.00092225 0
-2 -2 0 4 1 2.575e-05 0
-2 -2 0 4 2 -0.0001595 0
-2 -2 0 4 4 2.6e-05 0
-2 -2 0 4 5 -0.000124 0
-2 -2 0 5 1 -1.125e-05 0
-2 -2 0 5 2 -0.000504 0
-2 -2 0 5 4 -0.000124 0
-2 -2 0 5 5 -0.0008955 0
-2 -2 0 6 3 0.00092225 0
-2 -2 0 6 6 -0.0077885 0
-2 -2 0 7 7 2.6e-05 0
-2 -2 0 7 8 0.000124 0
-2 -2 0 7 10 2.575e-05 0
-2 -2 0 7 11 0.0001595 0
-2 -2 0 8 7 0.000124 0
-2 -2 0 8 8 -0.0008955 0
-2 -2 0 8 10 1.125e-05 0
-2 -2 0 8 11 -0.000504 0
-2 -2 0 9 9 -0.0077885 0
-2 -2 0 9 12 0.00092225 0
-2 -2 0 10 7 2.575e-05 0
-2 -2 0 10 8 -0.0001595 0
-2 -2 0 10 10 2.6e-05 0
-2 -2 0 10 11 -0.000124 0
-2 -2 0 11 7 -1.125e-05 0
-2 -2 0 11 8 -0.000504 0
-2 -2 0 11 10 -0.000124 0
-2 -2 0 11 11 -0.0008955 0
-2 -2 0 12 9 0.00092225 0
-2 -2 0 12 12 -0.0077885 0
-2 -1 0 1 1 1.45e-05 0
-2 -1 0 1 2 -0.00036025 0
-2 -1 0 1 4 7.05e-05 0
-2 -1 0 1 5 -0.00055025 0
-2 -1 0 2 1 -0.00036025 0
-2 -1 0 2 2 0.0015405 0
-2 -1 0 2 4 0.00055025 0
-2 -1 0 2 5 0.001857 0
-2 -1 0 3 3 -0.0110075 0
-2 -1 0 3 6 0.0209835 0
-2 -1 0 4 1 -0.00011525 0
-2 -1 0 4 2 0.0003645 0
-2 -1 0 4 4 0.000339 0
-2 -1 0 4 5 0.00036625 0
-2 -1 0 5 1 0.00017225 0
-2 -1 0 5 2 0.0004915 0
-2 -1 0 5 4 0.00036625 0
-2 -1 0 5 5 0.001455 0
-2 -1 0 6 3 -0.0014475 0
-2 -1 0 6 6 0.000163 0
-2 -1 0 7 7 1.45e-05 0
-2 -1 0 7 8 -0.00036025 0
-2 -1 0 7 10 7.05e-05 0
-2 -1 0 7 11 -0.00055025 0
-2 -1 0 8 7 -0.00036025 0
-2 -1 0 8 8 0.0015405 0
-2 -1 0 8 10 0.00055025 0
-2 -1 0 8 11 0.001857 0
-2 -1 0 9 9 -0.0110075 0
-2 -1 0 9 12 0.0209835 0
-2 -1 0 10 7 -0.00011525 0
-2 -1 0 10 8 0.0003645 0
-2 -1 0 10 10 0.000339 0
-2 -1 0 10 11 0.00036625 0
-2 -1 0 11 7 0.00017225 0
-2 -1 0 11 8 0.0004915 0
-2 -1 0 11 10 0.00036625 0
-2 -1 0 11 11 0.001455 0
-2 -1 0 12 9 -0.0014475 0
-2 -1 0 12 12 0.000163 0
-2 0 0 1 1 0.0008385 0
-2 0 0 1 2 0.00201 0
-2 0 0 1 4 -0.000682 0
-2 0 0 1 5 -0.000505 0
-2 0 0 2 1 0.00201 0
-2 0 0 2 2 0.0010275 0
-2 0 0 2 4 0.0041695 0
-2 0 0 2 5 0.0130935 0
-2 0 0 3 3 -0.01451 0
-2 0 0 3 6 -0.00878125 0
-2 0 0 4 1 0.0004915 0
-2 0 0 4 2 0.0003645 0
-2 0 0 4 4 0.0010275 0
-2 0 0 4 5 0.00201 0
-2 0 0 5 1 0.00017225 0
-2 0 0 5 2 -0.00011525 0
-2 0 0 5 4 0.00201 0
-2 0 0 5 5 0.0008385 0
-2 0 0 6 3 -0.0014475 0
-2 0 0 6 6 -0.01451 0
-2 0 0 7 7 0.0008385 0
-2 0 0 7 8 0.00201 0
-2 0 0 7 10 -0.000682 0
-2 0 0 7 11 -0.000505 0
-2 0 0 8 7 0.00201 0
-2 0 0 8 8 0.0010275 0
-2 0 0 8 10 0.0041695 0
-2 0 0 8 11 0.0130935 0
-2 0 0 9 9 -0.01451 0
-2 0 0 9 12 -0.00878125 0
-2 0 0 10 7 0.0004915 0
-2 0 0 10 8 0.0003645 0
-2 0 0 10 10 0.0010275 0
-2 0 0 10 11 0.00201 0
-2 0 0 11 7 0.00017225 0
-2 0 0 11 8 -0.00011525 0
-2 0 0 11 10 0.00201 0
-2 0 0 11 11 0.0008385 0
-2 0 0 12 9 -0.0014475 0
-2 0 0 12 12 -0.01451 0
-2 1 0 1 1 0.001455 0
-2 1 0 1 2 0.00036625 0
-2 1 0 1 4 0.0130935 0
-2 1 0 1 5 -0.000505 0
-2 1 0 2 1 0.00036625 0
-2 1 0 2 2 0.000339 0
-2 1 0 2 4 0.0041695 0
-2 1 0 2 5 -0.000682 0
-2 1 0 3 3 0.000163 0
-2 1 0 3 6 -0.00878125 0
-2 1 0 4 1 -0.000504 0
-2 1 0 4 2 -0.0001595 0
-2 1 0 4 4 0.0015405 0
-2 1 0 4 5 -0.00036 0
-2 1 0 5 1 -1.125e-05 0
-2 1 0 5 2 2.575e-05 0
-2 1 0 5 4 -0.00036 0
-2 1 0 5 5 1.45e-05 0
-2 1 0 6 3 0.00092225 0
-2 1 0 6 6 -0.0110075 0
-2 1 0 7 7 0.001455 0
-2 1 0 7 8 0.00036625 0
-2 1 0 7 10 0.0130935 0
-2 1 0 7 11 -0.000505 0
-2 1 0 8 7 0.00036625 0
-2 1 0 8 8 0.000339 0
-2 1 0 8 10 0.0041695 0
-2 1 0 8 11 -0.000682 0
-2 1 0 9 9 0.000163 0
-2 1 0 9 12 -0.00878125 0
-2 1 0 10 7 -0.000504 0
-2 1 0 10 8 -0.0001595 0
-2 1 0 10 10 0.0015405 0
-2 1 0 10 11 -0.00036 0
-2 1 0 11 7 -1.125e-05 0
-2 1 0 11 8 2.575e-05 0
-2 1 0 11 10 -0.00036 0
-2 1 0 11 11 1.45e-05 0
-2 1 0 12 9 0.00092225 0
-2 1 0 12 12 -0.0110075 0
-2 2 0 1 1 -0.0008955 0
-2 2 0 1 2 -0.000124 0
-2 2 0 1 4 0.001857 0
-2 2 0 1 5 -0.00055025 0
-2 2 0 2 1 -0.000124 0
-2 2 0 2 2 2.6e-05 0
-2 2 0 2 4 0.00055025 0
-2 2 0 2 5 7.05e-05 0
-2 2 0 3 3 -0.0077885 0
-2 2 0 3 6 0.0209835 0
-2 2 0 4 1 -0.0001845 0
-2 2 0 4 2 -4.175e-05 0
-2 2 0 4 4 -0.0008955 0
-2 2 0 4 5 0.000124 0
-2 2 0 5 1 4.175e-05 0
-2 2 0 5 2 1.95e-05 0
-2 2 0 5 4 0.000124 0
-2 2 0 5 5 2.6e-05 0
-2 2 0 6 3 0.0028475 0
-2 2 0 6 6 -0.0077885 0
-2 2 0 7 7 -0.0008955 0
-2 2 0 7 8 -0.000124 0
-2 2 0 7 10 0.001857 0
-2 2 0 7 11 -0.00055025 0
-2 2 0 8 7 -0.000124 0
-2 2 0 8 8 2.6e-05 0
-2 2 0 8 10 0.00055025 0
-2 2 0 8 11 7.05e-05 0
-2 2 0 9 9 -0.0077885 0
-2 2 0 9 12 0.0209835 0
-2 2 0 10 7 -0.0001845 0
-2 2 0 10 8 -4.175e-05 0
-2 2 0 10 10 -0.0008955 0
-2 2 0 10 11 0.000124 0
-2 2 0 11 7 4.175e-05 0
-2 2 0 11 8 1.95e-05 0
-2 2 0 11 10 0.000124 0
-2 2 0 11 11 2.6e-05 0
-2 2 0 12 9 0.0028475 0
-2 2 0 12 12 -0.0077885 0
-2 3 0 1 1 -0.00013 0
-2 3 0 1 2 -2.275e-05 0
-2 3 0 1 4 -0.000504 0
-2 3 0 1 5 0.0001595 0
-2 3 0 2 1 -2.275e-05 0
-2 3 0 2 2 1.6e-05 0
-2 3 0 2 4 1.125e-05 0
-2 3 0 2 5 2.575e-05 0
-2 3 0 3 3 -0.0007985 0
-2 3 0 3 6 0.00092225 0
-2 3 0 4 4 -0.000119 0
-2 3 0 4 5 4.2e-05 0
-2 3 0 5 4 4.2e-05 0
-2 3 0 5 5 -1.5e-05 0
-2 3 0 6 6 0.000805 0
-2 3 0 7 7 -0.00013 0
-2 3 0 7 8 -2.275e-05 0
-2 3 0 7 10 -0.000504 0
-2 3 0 7 11 0.0001595 0
-2 3 0 8 7 -2.275e-05 0
-2 3 0 8 8 1.6e-05 0
-2 3 0 8 10 1.125e-05 0
-2 3 0 8 11 2.575e-05 0
-2 3 0 9 9 -0.0007985 0
-2 3 0 9 12 0.00092225 0
-2 3 0 10 10 -0.000119 0
-2 3 0 10 11 4.2e-05 0
-2 3 0 11 10 4.2e-05 0
-2 3 0 11 11 -1.5e-05 0
-2 3 0 12 12 0.000805 0
-1 -3 0 1 1 -1.1e-05 0
-1 -3 0 1 2 7.5e-05 0
-1 -3 0 2 1 7.5e-05 0
-1 -3 0 2 2 -3.3e-05 0
-1 -3 0 3 3 -0.000283 0
-1 -3 0 4 1 2.575e-05 0
-1 -3 0 4 2 1.125e-05 0
-1 -3 0 4 4 9e-06 0
-1 -3 0 4 5 7.025e-05 0
-1 -3 0 5 1 0.0001595 0
-1 -3 0 5 2 -0.000504 0
-1 -3 0 5 4 7.025e-05 0
-1 -3 0 5 5 -7e-06 0
-1 -3 0 6 3 0.00092225 0
-1 -3 0 6 6 -0.0014845 0
-1 -3 0 7 7 -1.1e-05 0
-1 -3 0 7 8 7.5e-05 0
-1 -3 0 8 7 7.5e-05 0
-1 -3 0 8 8 -3.3e-05 0
-1 -3 0 9 9 -0.000283 0
-1 -3 0 10 7 2.575e-05 0
-1 -3 0 10 8 1.125e-05 0
-1 -3 0 10 10 9e-06 0
-1 -3 0 10 11 7.025e-05 0
-1 -3 0 11 7 0.0001595 0
-1 -3 0 11 8 -0.000504 0
-1 -3 0 11 10 7.025e-05 0
-1 -3 0 11 11 -7e-06 0
-1 -3 0 12 9 0.00092225 0
-1 -3 0 12 12 -0.0014845 0
-1 -2 0 1 1 0.000339 0
-1 -2 0 1 2 -0.00036625 0
-1 -2 0 1 4 -0.00011525 0
-1 -2 0 1 5 -0.0003645 0
-1 -2 0 2 1 -0.00036625 0
-1 -2 0 2 2 0.001455 0
-1 -2 0 2 4 -0.00017225 0
-1 -2 0 2 5 0.0004915 0
-1 -2 0 3 3 0.000163 0
-1 -2 0 3 6 -0.0014475 0
-1 -2 0 4 1 7.05e-05 0
-1 -2 0 4 2 0.00055025 0
-1 -2 0 4 4 1.45e-05 0
-1 -2 0 4 5 0.00036 0
-1 -2 0 5 1 -0.00055025 0
-1 -2 0 5 2 0.001857 0
-1 -2 0 5 4 0.00036 0
-1 -2 0 5 5 0.0015405 0
-1 -2 0 6 3 0.0209835 0
-1 -2 0 6 6 -0.0110075 0
-1 -2 0 7 7 0.000339 0
-1 -2 0 7 8 -0.00036625 0
-1 -2 0 7 10 -0.00011525 0
-1 -2 0 7 11 -0.0003645 0
-1 -2 0 8 7 -0.00036625 0
-1 -2 0 8 8 0.001455 0
-1 -2 0 8 10 -0.00017225 0
-1 -2 0 8 11 0.0004915 0
-1 -2 0 9 9 0.000163 0
-1 -2 0 9 12 -0.0014475 0
-1 -2 0 10 7 7.05e-05 0
-1 -2 0 10 8 0.00055025 0
-1 -2 0 10 10 1.45e-05 0
-1 -2 0 10 11 0.00036 0
-1 -2 0 11 7 -0.00055025 0
-1 -2 0 11 8 0.001857 0
-1 -2 0 11 10 0.00036 0
-1 -2 0 11 11 0.0015405 0
-1 -2 0 12 9 0.0209835 0
-1 -2 0 12 12 -0.0110075 0
-1 -1 0 1 1 0.002199 0
-1 -1 0 1 2 -0.00728825 0
-1 -1 0 1 4 -0.000682 0
-1 -1 0 1 5 -0.0041695 0
-1 -1 0 2 1 -0.00728825 0
-1 -1 0 2 2 0.0392485 0
-1 -1 0 2 4 0.000505 0
-1 -1 0 2 5 0.0130935 0
-1 -1 0 3 3 -0.0436505 0
-1 -1 0 3 6 -0.00878125 0
-1 -1 0 4 1 -0.000682 0
-1 -1 0 4 2 0.0041695 0
-1 -1 0 4 4 0.002199 0
-1 -1 0 4 5 0.00728825 0
-1 -1 0 5 1 -0.000505 0
-1 -1 0 5 2 0.0130935 0
-1 -1 0 5 4 0.00728825 0
-1 -1 0 5 5 0.0392485 0
-1 -1 0 6 3 -0.00878125 0
-1 -1 0 6 6 -0.0436505 0
-1 -1 0 7 7 0.002199 0
-1 -1 0 7 8 -0.00728825 0
-1 -1 0 7 10 -0.000682 0
-1 -1 0 7 11 -0.0041695 0
-1 -1 0 8 7 -0.00728825 0
-1 -1 0 8 8 0.0392485 0
-1 -1 0 8 10 0.000505 0
-1 -1 0 8 11 0.0130935 0
-1 -1 0 9 9 -0.0436505 0
-1 -1 0 9 12 -0.00878125 0
-1 -1 0 10 7 -0.000682 0
-1 -1 0 10 8 0.0041695 0
-1 -1 0 10 10 0.002199 0
-1 -1 0 10 11 0.00728825 0
-1 -1 0 11 7 -0.000505 0
-1 -1 0 11 8 0.0130935 0
-1 -1 0 11 10 0.00728825 0
-1 -1 0 11 11 0.0392485 0
-1 -1 0 12 9 -0.00878125 0
-1 -1 0 12 12 -0.0436505 0
-1 0 0 1 1 0.028649 0
-1 0 0 1 2 0.0135155 0
-1 0 0 1 4 -0.02725 0
-1 0 0 1 5 0.0780398 0
-1 0 0 2 1 0.0135155 0
-1 0 0 2 2 0.0078875 0
-1 0 0 2 4 -0.0780398 0
-1 0 0 2 5 -0.19452 0
-1 0 0 3 3 -0.111881 0
-1 0 0 3 6 -0.217186 0
-1 0 0 4 1 0.0130935 0
-1 0 0 4 2 0.0041695 0
-1 0 0 4 4 0.0078875 0
-1 0 0 4 5 0.0135155 0
-1 0 0 5 1 -0.000505 0
-1 0 0 5 2 -0.000682 0
-1 0 0 5 4 0.0135155 0
-1 0 0 5 5 0.028649 0
-1 0 0 6 3 -0.00878125 0
-1 0 0 6 6 -0.111881 0
-1 0 0 7 7 0.028649 0
-1 0 0 7 8 0.0135155 0
-1 0 0 7 10 -0.02725 0
-1 0 0 7 11 0.0780398 0
-1 0 0 8 7 0.0135155 0
-1 0 0 8 8 0.0078875 0
-1 0 0 8 10 -0.0780398 0
-1 0 0 8 11 -0.19452 0
-1 0 0 9 9 -0.111881 0
-1 0 0 9 12 -0.217186 0
-1 0 0 10 7 0.0130935 0
-1 0 0 10 8 0.0041695 0
-1 0 0 10 10 0.0078875 0
-1 0 0 10 11 0.0135155 0
-1 0 0 11 7 -0.000505 0
-1 0 0 11 8 -0.000682 0
-1 0 0 11 10 0.0135155 0
-1 0 0 11 11 0.028649 0
-1 0 0 12 9 -0.00878125 0
-1 0 0 12 12 -0.111881 0
-1 1 0 1 1 0.0392485 0
-1 1 0 1 2 0.00728825 0
-1 1 0 1 4 -0.19452 0
-1 1 0 1 5 0.0780398 0
-1 1 0 2 1 0.00728825 0
-1 1 0 2 2 0.002199 0
-1 1 0 2 4 -0.0780398 0
-1 1 0 2 5 -0.02725 0
-1 1 0 3 3 -0.0436505 0
-1 1 0 3 6 -0.217186 0
-1 1 0 4 1 0.001857 0
-1 1 0 4 2 0.00055025 0
-1 1 0 4 4 0.0392485 0
-1 1 0 4 5 -0.00728825 0
-1 1 0 5 1 -0.00055025 0
-1 1 0 5 2 7.05e-05 0
-1 1 0 5 4 -0.00728825 0
-1 1 0 5 5 0.002199 0
-1 1 0 6 3 0.0209835 0
-1 1 0 6 6 -0.0436505 0
-1 1 0 7 7 0.0392485 0
-1 1 0 7 8 0.00728825 0
-1 1 0 7 10 -0.19452 0
-1 1 0 7 11 0.0780398 0
-1 1 0 8 7 0.00728825 0
-1 1 0 8 8 0.002199 0
-1 1 0 8 10 -0.0780398 0
-1 1 0 8 11 -0.02725 0
-1 1 0 9 9 -0.0436505 0
-1 1 0 9 12 -0.217186 0
-1 1 0 10 7 0.001857 0
-1 1 0 10 8 0.00055025 0
-1 1 0 10 10 0.0392485 0
-1 1 0 10 11 -0.00728825 0
-1 1 0 11 7 -0.00055025 0
-1 1 0 11 8 7.05e-05 0
-1 1 0 11 10 -0.00728825 0
-1 1 0 11 11 0.002199 0
-1 1 0 12 9 0.0209835 0
-1 1 0 12 12 -0.0436505 0
-1 2 0 1 1 0.0015405 0
-1 2 0 1 2 0.00036025 0
-1 2 0 1 4 0.0130935 0
-1 2 0 1 5 -0.0041695 0
-1 2 0 2 1 0.00036025 0
-1 2 0 2 2 1.45e-05 0
-1 2 0 2 4 0.000505 0
-1 2 0 2 5 -0.000682 0
-1 2 0 3 3 -0.0110075 0
-1 2 0 3 6 -0.00878125 0
-1 2 0 4 1 -0.000504 0
-1 2 0 4 2 1.125e-05 0
-1 2 0 4 4 0.001455 0
-1 2 0 4 5 -0.00036625 0
-1 2 0 5 1 0.0001595 0
-1 2 0 5 2 2.575e-05 0
-1 2 0 5 4 -0.00036625 0
-1 2 0 5 5 0.000339 0
-1 2 0 6 3 0.00092225 0
-1 2 0 6 6 0.000163 0
-1 2 0 7 7 0.0015405 0
-1 2 0 7 8 0.00036025 0
-1 2 0 7 10 0.0130935 0
-1 2 0 7 11 -0.0041695 0
-1 2 0 8 7 0.00036025 0
-1 2 0 8 8 1.45e-05 0
-1 2 0 8 10 0.000505 0
-1 2 0 8 11 -0.000682 0
-1 2 0 9 9 -0.0110075 0
-1 2 0 9 12 -0.00878125 0
-1 2 0 10 7 -0.000504 0
-1 2 0 10 8 1.125e-05 0
-1 2 0 10 10 0.001455 0
-1 2 0 10 11 -0.00036625 0
-1 2 0 11 7 0.0001595 0
-1 2 0 11 8 2.575e-05 0
-1 2 0 11 10 -0.00036625 0
-1 2 0 11 11 0.000339 0
-1 2 0 12 9 0.00092225 0
-1 2 0 12 12 0.000163 0
-1 3 0 1 1 -7e-06 0
-1 3 0 1 2 7.025e-05 0
-1 3 0 1 4 0.0004915 0
-1 3 0 1 5 -0.0003645 0
-1 3 0 2 1 7.025e-05 0
-1 3 0 2 2 9e-06 0
-1 3 0 2 4 -0.00017225 0
-1 3 0 2 5 -0.00011525 0
-1 3 0 3 3 -0.0014845 0
-1 3 0 3 6 -0.0014475 0
-1 3 0 4 4 -3.3e-05 0
-1 3 0 4 5 7.5e-05 0
-1 3 0 5 4 7.5e-05 0
-1 3 0 5 5 -1.1e-05 0
-1 3 0 6 6 -0.000283 0
-1 3 0 7 7 -7e-06 0
-1 3 0 7 8 7.025e-05 0
-1 3 0 7 10 0.0004915 0
-1 3 0 7 11 -0.0003645 0
-1 3 0 8 7 7.025e-05 0
-1 3 0 8 8 9e-06 0
-1 3 0 8 10 -0.00017225 0
-1 3 0 8 11 -0.00011525 0
-1 3 0 9 9 -0.0014845 0
-1 3 0 9 12 -0.0014475 0
-1 3 0 10 10 -3.3e-05 0
-1 3 0 10 11 7.5e-05 0
-1 3 0 11 10 7.5e-05 0
-1 3 0 11 11 -1.1e-05 0
-1 3 0 12 12 -0.000283 0
0 -3 0 1 1 2.35e-05 0
0 -3 0 1 2 -0.0001125 0
0 -3 0 2 1 -0.0001125 0
0 -3 0 2 2 -2.35e-05 0
0 -3 0 3 3 -0.0018525 0
0 -3 0 4 1 -0.00011525 0
0 -3 0 4 2 -0.00017225 0
0 -3 0 4 4 -2.35e-05 0
0 -3 0 4 5 -0.0001125 0
0 -3 0 5 1 -0.0003645 0
0 -3 0 5 2 0.0004915 0
0 -3 0 5 4 -0.0001125 0
0 -3 0 5 5 2.35e-05 0
0 -3 0 6 3 -0.0014475 0
0 -3 0 6 6 -0.0018525 0
0 -3 0 7 7 2.35e-05 0
0 -3 0 7 8 -0.0001125 0
0 -3 0 8 7 -0.0001125 0
0 -3 0 8 8 -2.35e-05 0
0 -3 0 9 9 -0.0018525 0
0 -3 0 10 7 -0.00011525 0
0 -3 0 10 8 -0.00017225 0
0 -3 0 10 10 -2.35e-05 0
0 -3 0 10 11 -0.0001125 0
0 -3 0 11 7 -0.0003645 0
0 -3 0 11 8 0.0004915 0
0 -3 0 11 10 -0.0001125 0
0 -3 0 11 11 2.35e-05 0
0 -3 0 12 9 -0.0014475 0
0 -3 0 12 12 -0.0018525 0
0 -2 0 1 1 0.0010275 0
0 -2 0 1 2 -0.00201 0
0 -2 0 1 4 0.0004915 0
0 -2 0 1 5 -0.0003645 0
0 -2 0 2 1 -0.00201 0
0 -2 0 2 2 0.0008385 0
0 -2 0 2 4 -0.00017225 0
0 -2 0 2 5 -0.00011525 0
0 -2 0 3 3 -0.01451 0
0 -2 0 3 6 -0.0014475 0
0 -2 0 4 1 -0.000682 0
0 -2 0 4 2 0.000505 0
0 -2 0 4 4 0.0008385 0
0 -2 0 4 5 -0.00201 0
0 -2 0 5 1 -0.0041695 0
0 -2 0 5 2 0.0130935 0
0 -2 0 5 4 -0.00201 0
0 -2 0 5 5 0.0010275 0
0 -2 0 6 3 -0.00878125 0
0 -2 0 6 6 -0.01451 0
0 -2 0 7 7 0.0010275 0
0 -2 0 7 8 -0.00201 0
0 -2 0 7 10 0.0004915 0
0 -2 0 7 11 -0.0003645 0
0 -2 0 8 7 -0.00201 0
0 -2 0 8 8 0.0008385 0
0 -2 0 8 10 -0.00017225 0
0 -2 0 8 11 -0.00011525 0
0 -2 0 9 9 -0.01451 0
0 -2 0 9 12 -0.0014475 0
0 -2 0 10 7 -0.000682 0
0 -2 0 10 8 0.000505 0
0 -2 0 10 10 0.0008385 0
0 -2 0 10 11 -0.00201 0
0 -2 0 11 7 -0.0041695 0
0 -2 0 11 8 0.0130935 0
0 -2 0 11 10 -0.00201 0
0 -2 0 11 11 0.0010275 0
0 -2 0 12 9 -0.00878125 0
0 -2 0 12 12 -0.01451 0
0 -1 0 1 1 0.0078875 0
0 -1 0 1 2 -0.0135155 0
0 -1 0 1 4 0.0130935 0
0 -1 0 1 5 -0.0041695 0
0 -1 0 2 1 -0.0135155 0
0 -1 0 2 2 0.028649 0
0 -1 0 2 4 0.000505 0
0 -1 0 2 5 -0.000682 0
0 -1 0 3 3 -0.111881 0
0 -1 0 3 6 -0.00878125 0
0 -1 0 4 1 -0.02725 0
0 -1 0 4 2 -0.0780398 0
0 -1 0 4 4 0.028649 0
0 -1 0 4 5 -0.0135155 0
0 -1 0 5 1 0.0780398 0
0 -1 0 5 2 -0.19452 0
0 -1 0 5 4 -0.0135155 0
0 -1 0 5 5 0.0078875 0
0 -1 0 6 3 -0.217186 0
0 -1 0 6 6 -0.111881 0
0 -1 0 7 7 0.0078875 0
0 -1 0 7 8 -0.0135155 0
0 -1 0 7 10 0.0130935 0
0 -1 0 7 11 -0.0041695 0
0 -1 0 8 7 -0.0135155 0
0 -1 0 8 8 0.028649 0
0 -1 0 8 10 0.000505 0
0 -1 0 8 11 -0.000682 0
0 -1 0 9 9 -0.111881 0
0 -1 0 9 12 -0.00878125 0
0 -1 0 10 7 -0.02725 0
0 -1 0 10 8 -0.0780398 0
0 -1 0 10 10 0.028649 0
0 -1 0 10 11 -0.0135155 0
0 -1 0 11 7 0.0780398 0
0 -1 0 11 8 -0.19452 0
0 -1 0 11 10 -0.0135155 0
0 -1 0 11 11 0.0078875 0
0 -1 0 12 9 -0.217186 0
0 -1 0 12 12 -0.111881 0
0 0 0 1 1 -0.103859 0
0 0 0 1 2 0 -0.0875
0 0 0 1 4 -0.19452 0
0 0 0 1 5 0.0780398 0
0 0 0 1 9 0.0618718 0.0618718
0 0 0 2 1 0 0.0875
0 0 0 2 2 -0.103858 0
0 0 0 2 4 -0.0780398 0
0 0 0 2 5 -0.02725 0
0 0 0 2 9 -0.0618718 0.0618718
0 0 0 3 3 -0.373891 0
0 0 0 3 6 -0.217186 0
0 0 0 3 7 -0.0618718 -0.0618718
0 0 0 3 8 0.0618718 -0.0618718
0 0 0 4 1 -0.19452 0
0 0 0 4 2 -0.0780398 0
0 0 0 4 4 -0.103858 0
0 0 0 4 5 0 -0.0875
0 0 0 4 12 0.0618718 0.0618718
0 0 0 5 1 0.0780398 0
0 0 0 5 2 -0.02725 0
0 0 0 5 4 0 0.0875
0 0 0 5 5 -0.103859 0
0 0 0 5 12 -0.0618718 0.0618718
0 0 0 6 3 -0.217186 0
0 0 0 6 6 -0.373891 0
0 0 0 6 10 -0.0618718 -0.0618718
0 0 0 6 11 0.0618718 -0.0618718
0 0 0 7 3 -0.0618718 0.0618718
0 0 0 7 7 -0.103859 0
0 0 0 7 8 0 0.0875
0 0 0 7 10 -0.19452 0
0 0 0 7 11 0.0780398 0
0 0 0 8 3 0.0618718 0.0618718
0 0 0 8 7 0 -0.0875
0 0 0 8 8 -0.103858 0
0 0 0 8 10 -0.0780398 0
0 0 0 8 11 -0.02725 0
0 0 0 9 1 0.0618718 -0.0618718
0 0 0 9 2 -0.0618718 -0.0618718
0 0 0 9 9 -0.373891 0
0 0 0 9 12 -0.217186 0
0 0 0 10 6 -0.0618718 0.0618718
0 0 0 10 7 -0.19452 0
0 0 0 10 8 -0.0780398 0
0 0 0 10 10 -0.103858 0
0 0 0 10 11 0 0.0875
0 0 0 11 6 0.0618718 0.0618718
0 0 0 11 7 0.0780398 0
0 0 0 11 8 -0.02725 0
0 0 0 11 10 0 -0.0875
0 0 0 11 11 -0.103859 0
0 0 0 12 4 0.0618718 -0.0618718
0 0 0 12 5 -0.0618718 -0.0618718
0 0 0 12 9 -0.217186 0
0 0 0 12 12 -0.373891 0
0 1 0 1 1 0.0078875 0
0 1 0 1 2 -0.0135155 0
0 1 0 1 4 -0.02725 0
0 1 0 1 5 0.0780398 0
0 1 0 2 1 -0.0135155 0
0 1 0 2 2 0.028649 0
0 1 0 2 4 -0.0780398 0
0 1 0 2 5 -0.19452 0
0 1 0 3 3 -0.111881 0
0 1 0 3 6 -0.217186 0
0 1 0 4 1 0.0130935 0
0 1 0 4 2 0.000505 0
0 1 0 4 4 0.028649 0
0 1 0 4 5 -0.0135155 0
0 1 0 5 1 -0.0041695 0
0 1 0 5 2 -0.000682 0
0 1 0 5 4 -0.0135155 0
0 1 0 5 5 0.0078875 0
0 1 0 6 3 -0.00878125 0
0 1 0 6 6 -0.111881 0
0 1 0 7 7 0.0078875 0
0 1 0 7 8 -0.0135155 0
0 1 0 7 10 -0.02725 0
0 1 0 7 11 0.0780398 0
0 1 0 8 7 -0.0135155 0
0 1 0 8 8 0.028649 0
0 1 0 8 10 -0.0780398 0
0 1 0 8 11 -0.19452 0
0 1 0 9 9 -0.111881 0
0 1 0 9 12 -0.217186 0
0 1 0 10 7 0.0130935 0
0 1 0 10 8 0.000505 0
0 1 0 10 10 0.028649 0
0 1 0 10 11 -0.0135155 0
0 1 0 11 7 -0.0041695 0
0 1 0 11 8 -0.000682 0
0 1 0 11 10 -0.0135155 0
0 1 0 11 11 0.0078875 0
0 1 0 12 9 -0.00878125 0
0 1 0 12 12 -0.111881 0
0 2 0 1 1 0.0010275 0
0 2 0 1 2 -0.00201 0
0 2 0 1 4 -0.000682 0
0 2 0 1 5 -0.0041695 0
0 2 0 2 1 -0.00201 0
0 2 0 2 2 0.0008385 0
0 2 0 2 4 0.000505 0
0 2 0 2 5 0.0130935 0
0 2 0 3 3 -0.01451 0
0 2 0 3 6 -0.00878125 0
0 2 0 4 1 0.0004915 0
0 2 0 4 2 -0.00017225 0
0 2 0 4 4 0.0008385 0
0 2 0 4 5 -0.00201 0
0 2 0 5 1 -0.0003645 0
0 2 0 5 2 -0.00011525 0
0 2 0 5 4 -0.00201 0
0 2 0 5 5 0.0010275 0
0 2 0 6 3 -0.0014475 0
0 2 0 6 6 -0.01451 0
0 2 0 7 7 0.0010275 0
0 2 0 7 8 -0.00201 0
0 2 0 7 10 -0.000682 0
0 2 0 7 11 -0.0041695 0
0 2 0 8 7 -0.00201 0
0 2 0 8 8 0.0008385 0
0 2 0 8 10 0.000505 0
0 2 0 8 11 0.0130935 0
0 2 0 9 9 -0.01451 0
0 2 0 9 12 -0.00878125 0
0 2 0 10 7 0.0004915 0
0 2 0 10 8 -0.00017225 0
0 2 0 10 10 0.0008385 0
0 2 0 10 11 -0.00201 0
0 2 0 11 7 -0.0003645 0
0 2 0 11 8 -0.00011525 0
0 2 0 11 10 -0.00201 0
0 2 0 11 11 0.0010275 0
0 2 0 12 9 -0.0014475 0
0 2 0 12 12 -0.01451 0
0 3 0 1 1 2.35e-05 0
0 3 0 1 2 -0.0001125 0
0 3 0 1 4 -0.00011525 0
0 3 0 1 5 -0.0003645 0
0 3 0 2 1 -0.0001125 0
0 3 0 2 2 -2.35e-05 0
0 3 0 2 4 -0.00017225 0
0 3 0 2 5 0.0004915 0
0 3 0 3 3 -0.0018525 0
0 3 0 3 6 -0.0014475 0
0 3 0 4 4 -2.35e-05 0
0 3 0 4 5 -0.0001125 0
0 3 0 5 4 -0.0001125 0
0 3 0 5 5 2.35e-05 0
0 3 0 6 6 -0.0018525 0
0 3 0 7 7 2.35e-05 0
0 3 0 7 8 -0.0001125 0
0 3 0 7 10 -0.00011525 0
0 3 0 7 11 -0.0003645 0
0 3 0 8 7 -0.0001125 0
0 3 0 8 8 -2.35e-05 0
0 3 0 8 10 -0.00017225 0
0 3 0 8 11 0.0004915 0
0 3 0 9 9 -0.0018525 0
0 3 0 9 12 -0.0014475 0
0 3 0 10 10 -2.35e-05 0
0 3 0 10 11 -0.0001125 0
0 3 0 11 10 -0.0001125 0
0 3 0 11 11 2.35e-05 0
0 3 0 12 12 -0.0018525 0
1 -3 0 1 1 -7e-06 0
1 -3 0 1 2 7.025e-05 0
1 -3 0 2 1 7.025e-05 0
1 -3 0 2 2 9e-06 0
1 -3 0 3 3 -0.0014845 0
1 -3 0 4 1 0.0004915 0
1 -3 0 4 2 -0.00017225 0
1 -3 0 4 4 -3.3e-05 0
1 -3 0 4 5 7.5e-05 0
1 -3 0 5 1 -0.0003645 0
1 -3 0 5 2 -0.00011525 0
1 -3 0 5 4 7.5e-05 0
1 -3 0 5 5 -1.1e-05 0
1 -3 0 6 3 -0.0014475 0
1 -3 0 6 6 -0.000283 0
1 -3 0 7 7 -7e-06 0
1 -3 0 7 8 7.025e-05 0
1 -3 0 8 7 7.025e-05 0
1 -3 0 8 8 9e-06 0
1 -3 0 9 9 -0.0014845 0
1 -3 0 10 7 0.0004915 0
1 -3 0 10 8 -0.00017225 0
1 -3 0 10 10 -3.3e-05 0
1 -3 0 10 11 7.5e-05 0
1 -3 0 11 7 -0.0003645 0
1 -3 0 11 8 -0.00011525 0
1 -3 0 11 10 7.5e-05 0
1 -3 0 11 11 -1.1e-05 0
1 -3 0 12 9 -0.0014475 0
1 -3 0 12 12 -0.000283 0
1 -2 0 1 1 0.0015405 0
1 -2 0 1 2 0.00036025 0
1 -2 0 1 4 -0.000504 0
1 -2 0 1 5 0.0001595 0
1 -2 0 2 1 0.00036025 0
1 -2 0 2 2 1.45e-05 0
1 -2 0 2 4 1.125e-05 0
1 -2 0 2 5 2.575e-05 0
1 -2 0 3 3 -0.0110075 0
1 -2 0 3 6 0.00092225 0
1 -2 0 4 1 0.0130935 0
1 -2 0 4 2 0.000505 0
1 -2 0 4 4 0.001455 0
1 -2 0 4 5 -0.00036625 0
1 -2 0 5 1 -0.0041695 0
1 -2 0 5 2 -0.000682 0
1 -2 0 5 4 -0.00036625 0
1 -2 0 5 5 0.000339 0
1 -2 0 6 3 -0.00878125 0
1 -2 0 6 6 0.000163 0
1 -2 0 7 7 0.0015405 0
1 -2 0 7 8 0.00036025 0
1 -2 0 7 10 -0.000504 0
1 -2 0 7 11 0.0001595 0
1 -2 0 8 7 0.00036025 0
1 -2 0 8 8 1.45e-05 0
1 -2 0 8 10 1.125e-05 0
1 -2 0 8 11 2.575e-05 0
1 -2 0 9 9 -0.0110075 0
1 -2 0 9 12 0.00092225 0
1 -2 0 10 7 0.0130935 0
1 -2 0 10 8 0.000505 0
1 -2 0 10 10 0.001455 0
1 -2 0 10 11 -0.00036625 0
1 -2 0 11 7 -0.0041695 0
1 -2 0 11 8 -0.000682 0
1 -2 0 11 10 -0.00036625 0
1 -2 0 11 11 0.000339 0
1 -2 0 12 9 -0.00878125 0
1 -2 0 12 12 0.000163 0
1 -1 0 1 1 0.0392485 0
1 -1 0 1 2 0.00728825 0
1 -1 0 1 4 0.001857 0
1 -1 0 1 5 -0.00055025 0
1 -1 0 2 1 0.00728825 0
1 -1 0 2 2 0.002199 0
1 -1 0 2 4 0.00055025 0
1 -1 0 2 5 7.05e-05 0
1 -1 0 3 3 -0.0436505 0
1 -1 0 3 6 0.0209835 0
1 -1 0 4 1 -0.19452 0
1 -1 0 4 2 -0.0780398 0
1 -1 0 4 4 0.0392485 0
1 -1 0 4 5 -0.00728825 0
1 -1 0 5 1 0.0780398 0
1 -1 0 5 2 -0.02725 0
1 -1 0 5 4 -0.00728825 0
1 -1 0 5 5 0.002199 0
1 -1 0 6 3 -0.217186 0
1 -1 0 6 6 -0.0436505 0
1 -1 0 7 7 0.0392485 0
1 -1 0 7 8 0.00728825 0
1 -1 0 7 10 0.001857 0
1 -1 0 7 11 -0.00055025 0
1 -1 0 8 7 0.00728825 0
1 -1 0 8 8 0.002199 0
1 -1 0 8 10 0.00055025 0
1 -1 0 8 11 7.05e-05 0
1 -1 0 9 9 -0.0436505 0
1 -1 0 9 12 0.0209835 0
1 -1 0 10 7 -0.19452 0
1 -1 0 10 8 -0.0780398 0
1 -1 0 10 10 0.0392485 0
1 -1 0 10 11 -0.00728825 0
1 -1 0 11 7 0.0780398 0
1 -1 0 11 8 -0.02725 0
1 -1 0 11 10 -0.00728825 0
1 -1 0 11 11 0.002199 0
1 -1 0 12 9 -0.217186 0
1 -1 0 12 12 -0.0436505 0
1 0 0 1 1 0.028649 0
1 0 0 1 2 0.0135155 0
1 0 0 1 4 0.0130935 0
1 0 0 1 5 -0.000505 0
1 0 0 2 1 0.0135155 0
1 0 0 2 2 0.0078875 0
1 0 0 2 4 0.0041695 0
1 0 0 2 5 -0.000682 0
1 0 0 3 3 -0.111881 0
1 0 0 3 6 -0.00878125 0
1 0 0 4 1 -0.02725 0
1 0 0 4 2 -0.0780398 0
1 0 0 4 4 0.0078875 0
1 0 0 4 5 0.0135155 0
1 0 0 5 1 0.0780398 0
1 0 0 5 2 -0.19452 0
1 0 0 5 4 0.0135155 0
1 0 0 5 5 0.028649 0
1 0 0 6 3 -0.217186 0
1 0 0 6 6 -0.111881 0
1 0 0 7 7 0.028649 0
1 0 0 7 8 0.0135155 0
1 0 0 7 10 0.0130935 0
1 0 0 7 11 -0.000505 0
1 0 0 8 7 0.0135155 0
1 0 0 8 8 0.0078875 0
1 0 0 8 10 0.0041695 0
1 0 0 8 11 -0.000682 0
1 0 0 9 9 -0.111881 0
1 0 0 9 12 -0.00878125 0
1 0 0 10 7 -0.02725 0
1 0 0 10 8 -0.0780398 0
1 0 0 10 10 0.0078875 0
1 0 0 10 11 0.0135155 0
1 0 0 11 7 0.0780398 0
1 0 0 11 8 -0.19452 0
1 0 0 11 10 0.0135155 0
1 0 0 11 11 0.028649 0
1 0 0 12 9 -0.217186 0
1 0 0 12 12 -0.111881 0
1 1 0 1 1 0.002199 0
1 1 0 1 2 -0.00728825 0
1 1 0 1 4 -0.000682 0
1 1 0 1 5 -0.000505 0
1 1 0 2 1 -0.00728825 0
1 1 0 2 2 0.0392485 0
1 1 0 2 4 0.0041695 0
1 1 0 2 5 0.0130935 0
1 1 0 3 3 -0.0436505 0
1 1 0 3 6 -0.00878125 0
1 1 0 4 1 -0.000682 0
1 1 0 4 2 0.000505 0
1 1 0 4 4 0.002199 0
1 1 0 4 5 0.00728825 0
1 1 0 5 1 -0.0041695 0
1 1 0 5 2 0.0130935 0
1 1 0 5 4 0.00728825 0
1 1 0 5 5 0.0392485 0
1 1 0 6 3 -0.00878125 0
1 1 0 6 6 -0.0436505 0
1 1 0 7 7 0.002199 0
1 1 0 7 8 -0.00728825 0
1 1 0 7 10 -0.000682 0
1 1 0 7 11 -0.000505 0
1 1 0 8 7 -0.00728825 0
1 1 0 8 8 0.0392485 0
1 1 0 8 10 0.0041695 0
1 1 0 8 11 0.0130935 0
1 1 0 9 9 -0.0436505 0
1 1 0 9 12 -0.00878125 0
1 1 0 10 7 -0.000682 0
1 1 0 10 8 0.000505 0
1 1 0 10 10 0.002199 0
1 1 0 10 11 0.00728825 0
1 1 0 11 7 -0.0041695 0
1 1 0 11 8 0.0130935 0
1 1 0 11 10 0.00728825 0
1 1 0 11 11 0.0392485 0
1 1 0 12 9 -0.00878125 0
1 1 0 12 12 -0.0436505 0
1 2 0 1 1 0.000339 0
1 2 0 1 2 -0.00036625 0
1 2 0 1 4 7.05e-05 0
1 2 0 1 5 -0.00055025 0
1 2 0 2 1 -0.00036625 0
1 2 0 2 2 0.001455 0
1 2 0 2 4 0.00055025 0
1 2 0 2 5 0.001857 0
1 2 0 3 3 0.000163 0
1 2 0 3 6 0.0209835 0
1 2 0 4 1 -0.00011525 0
1 2 0 4 2 -0.00017225 0
1 2 0 4 4 1.45e-05 0
1 2 0 4 5 0.00036 0
1 2 0 5 1 -0.0003645 0
1 2 0 5 2 0.0004915 0
1 2 0 5 4 0.00036 0
1 2 0 5 5 0.0015405 0
1 2 0 6 3 -0.0014475 0
1 2 0 6 6 -0.0110075 0
1 2 0 7 7 0.000339 0
1 2 0 7 8 -0.00036625 0
1 2 0 7 10 7.05e-05 0
1 2 0 7 11 -0.00055025 0
1 2 0 8 7 -0.00036625 0
1 2 0 8 8 0.001455 0
1 2 0 8 10 0.00055025 0
1 2 0 8 11 0.001857 0
1 2 0 9 9 0.000163 0
1 2 0 9 12 0.0209835 0
1 2 0 10 7 -0.00011525 0
1 2 0 10 8 -0.00017225 0
1 2 0 10 10 1.45e-05 0
1 2 0 10 11 0.00036 0
1 2 0 11 7 -0.0003645 0
1 2 0 11 8 0.0004915 0
1 2 0 11 10 0.00036 0
1 2 0 11 11 0.0015405 0
1 2 0 12 9 -0.0014475 0
1 2 0 12 12 -0.0110075 0
1 3 0 1 1 -1.1e-05 0
1 3 0 1 2 7.5e-05 0
1 3 0 1 4 2.575e-05 0
1 3 0 1 5 0.0001595 0
1 3 0 2 1 7.5e-05 0
1 3 0 2 2 -3.3e-05 0
1 3 0 2 4 1.125e-05 0
1 3 0 2 5 -0.000504 0
1 3 0 3 3 -0.000283 0
1 3 0 3 6 0.00092225 0
1 3 0 4 4 9e-06 0
1 3 0 4 5 7.025e-05 0
1 3 0 5 4 7.025e-05 0
1 3 0 5 5 -7e-06 0
1 3 0 6 6 -0.0014845 0
1 3 0 7 7 -1.1e-05 0
1 3 0 7 8 7.5e-05 0
1 3 0 7 10 2.575e-05 0
1 3 0 7 11 0.0001595 0
1 3 0 8 7 7.5e-05 0
1 3 0 8 8 -3.3e-05 0
1 3 0 8 10 1.125e-05 0
1 3 0 8 11 -0.000504 0
1 3 0 9 9 -0.000283 0
1 3 0 9 12 0.00092225 0
1 3 0 10 10 9e-06 0
1 3 0 10 11 7.025e-05 0
1 3 0 11 10 7.025e-05 0
1 3 0 11 11 -7e-06 0
1 3 0 12 12 -0.0014845 0
2 -3 0 1 1 -0.00013 0
2 -3 0 1 2 -2.275e-05 0
2 -3 0 2 1 -2.275e-05 0
2 -3 0 2 2 1.6e-05 0
2 -3 0 3 3 -0.0007985 0
2 -3 0 4 1 -0.000504 0
2 -3 0 4 2 1.125e-05 0
2 -3 0 4 4 -0.000119 0
2 -3 0 4 5 4.2e-05 0
2 -3 0 5 1 0.0001595 0
2 -3 0 5 2 2.575e-05 0
2 -3 0 5 4 4.2e-05 0
2 -3 0 5 5 -1.5e-05 0
2 -3 0 6 3 0.00092225 0
2 -3 0 6 6 0.000805 0
2 -3 0 7 7 -0.00013 0
2 -3 0 7 8 -2.275e-05 0
2 -3 0 8 7 -2.275e-05 0
2 -3 0 8 8 1.6e-05 0
2 -3 0 9 9 -0.0007985 0
2 -3 0 10 7 -0.000504 0
2 -3 0 10 8 1.125e-05 0
2 -3 0 10 10 -0.000119 0
2 -3 0 10 11 4.2e-05 0
2 -3 0 11 7 0.0001595 0
2 -3 0 11 8 2.575e-05 0
2 -3 0 11 10 4.2e-05 0
2 -3 0 11 11 -1.5e-05 0
2 -3 0 12 9 0.00092225 0
2 -3 0 12 12 0.000805 0
2 -2 0 1 1 -0.0008955 0
2 -2 0 1 2 -0.000124 0
2 -2 0 1 4 -0.0001845 0
2 -2 0 1 5 4.175e-05 0
2 -2 0 2 1 -0.000124 0
2 -2 0 2 2 2.6e-05 0
2 -2 0 2 4 -4.175e-05 0
2 -2 0 2 5 1.95e-05 0
2 -2 0 3 3 -0.0077885 0
2 -2 0 3 6 0.0028475 0
2 -2 0 4 1 0.001857 0
2 -2 0 4 2 0.00055025 0
2 -2 0 4 4 -0.0008955 0
2 -2 0 4 5 0.000124 0
2 -2 0 5 1 -0.00055025 0
2 -2 0 5 2 7.05e-05 0
2 -2 0 5 4 0.000124 0
2 -2 0 5 5 2.6e-05 0
2 -2 0 6 3 0.0209835 0
2 -2 0 6 6 -0.0077885 0
2 -2 0 7 7 -0.0008955 0
2 -2 0 7 8 -0.000124 0
2 -2 0 7 10 -0.0001845 0
2 -2 0 7 11 4.175e-05 0
2 -2 0 8 7 -0.000124 0
2 -2 0 8 8 2.6e-05 0
2 -2 0 8 10 -4.175e-05 0
2 -2 0 8 11 1.95e-05 0
2 -2 0 9 9 -0.0077885 0
2 -2 0 9 12 0.0028475 0
2 -2 0 10 7 0.001857 0
2 -2 0 10 8 0.00055025 0
2 -2 0 10 10 -0.0008955 0
2 -2 0 10 11 0.000124 0
2 -2 0 11 7 -0.00055025 0
2 -2 0 11 8 7.05e-05 0
2 -2 0 11 10 0.000124 0
2 -2 0 11 11 2.6e-05 0
2 -2 0 12 9 0.0209835 0
2 -2 0 12 12 -0.0077885 0
2 -1 0 1 1 0.001455 0
2 -1 0 1 2 0.00036625 0
2 -1 0 1 4 -0.000504 0
2 -1 0 1 5 -1.125e-05 0
2 -1 0 2 1 0.00036625 0
2 -1 0 2 2 0.000339 0
2 -1 0 2 4 -0.0001595 0
2 -1 0 2 5 2.575e-05 0
2 -1 0 3 3 0.000163 0
2 -1 0 3 6 0.00092225 0
2 -1 0 4 1 0.0130935 0
2 -1 0 4 2 0.0041695 0
2 -1 0 4 4 0.0015405 0
2 -1 0 4 5 -0.00036 0
2 -1 0 5 1 -0.000505 0
2 -1 0 5 2 -0.000682 0
2 -1 0 5 4 -0.00036 0
2 -1 0 5 5 1.45e-05 0
2 -1 0 6 3 -0.00878125 0
2 -1 0 6 6 -0.0110075 0
2 -1 0 7 7 0.001455 0
2 -1 0 7 8 0.00036625 0
2 -1 0 7 10 -0.000504 0
2 -1 0 7 11 -1.125e-05 0
2 -1 0 8 7 0.00036625 0
2 -1 0 8 8 0.000339 0
2 -1 0 8 10 -0.0001595 0
2 -1 0 8 11 2.575e-05 0
2 -1 0 9 9 0.000163 0
2 -1 0 9 12 0.00092225 0
2 -1 0 10 7 0.0130935 0
2 -1 0 10 8 0.0041695 0
2 -1 0 10 10 0.0015405 0
2 -1 0 10 11 -0.00036 0
2 -1 0 11 7 -0.000505 0
2 -1 0 11 8 -0.000682 0
2 -1 0 11 10 -0.00036 0
2 -1 0 11 11 1.45e-05 0
2 -1 0 12 9 -0.00878125 0
2 -1 0 12 12 -0.0110075 0
2 0 0 1 1 0.0008385 0
2 0 0 1 2 0.00201 0
2 0 0 1 4 0.0004915 0
2 0 0 1 5 0.00017225 0
2 0 0 2 1 0.00201 0
2 0 0 2 2 0.0010275 0
2 0 0 2 4 0.0003645 0
2 0 0 2 5 -0.00011525 0
2 0 0 3 3 -0.01451 0
2 0 0 3 6 -0.0014475 0
2 0 0 4 1 -0.000682 0
2 0 0 4 2 0.0041695 0
2 0 0 4 4 0.0010275 0
2 0 0 4 5 0.00201 0
2 0 0 5 1 -0.000505 0
2 0 0 5 2 0.0130935 0
2 0 0 5 4 0.00201 0
2 0 0 5 5 0.0008385 0
2 0 0 6 3 -0.00878125 0
2 0 0 6 6 -0.01451 0
2 0 0 7 7 0.0008385 0
2 0 0 7 8 0.00201 0
2 0 0 7 10 0.0004915 0
2 0 0 7 11 0.00017225 0
2 0 0 8 7 0.00201 0
2 0 0 8 8 0.0010275 0
2 0 0 8 10 0.0003645 0
2 0 0 8 11 -0.00011525 0
2 0 0 9 9 -0.01451 0
2 0 0 9 12 -0.0014475 0
2 0 0 10 7 -0.000682 0
2 0 0 10 8 0.0041695 0
2 0 0 10 10 0.0010275 0
2 0 0 10 11 0.00201 0
2 0 0 11 7 -0.000505 0
2 0 0 11 8 0.0130935 0
2 0 0 11 10 0.00201 0
2 0 0 11 11 0.0008385 0
2 0 0 12 9 -0.00878125 0
2 0 0 12 12 -0.01451 0
2 1 0 1 1 1.45e-05 0
2 1 0 1 2 -0.00036025 0
2 1 0 1 4 -0.00011525 0
2 1 0 1 5 0.00017225 0
2 1 0 2 1 -0.00036025 0
2 1 0 2 2 0.0015405 0
2 1 0 2 4 0.0003645 0
2 1 0 2 5 0.0004915 0
2 1 0 3 3 -0.0110075 0
2 1 0 3 6 -0.0014475 0
2 1 0 4 1 7.05e-05 0
2 1 0 4 2 0.00055025 0
2 1 0 4 4 0.000339 0
2 1 0 4 5 0.00036625 0
2 1 0 5 1 -0.00055025 0
2 1 0 5 2 0.001857 0
2 1 0 5 4 0.00036625 0
2 1 0 5 5 0.001455 0
2 1 0 6 3 0.0209835 0
2 1 0 6 6 0.000163 0
2 1 0 7 7 1.45e-05 0
2 1 0 7 8 -0.00036025 0
2 1 0 7 10 -0.00011525 0
2 1 0 7 11 0.00017225 0
2 1 0 8 7 -0.00036025 0
2 1 0 8 8 0.0015405 0
2 1 0 8 10 0.0003645 0
2 1 0 8 11 0.0004915 0
2 1 0 9 9 -0.0110075 0
2 1 0 9 12 -0.0014475 0
2 1 0 10 7 7.05e-05 0
2 1 0 10 8 0.00055025 0
2 1 0 10 10 0.000339 0
2 1 0 10 11 0.00036625 0
2 1 0 11 7 -0.00055025 0
2 1 0 11 8 0.001857 0
2 1 0 11 10 0.00036625 0
2 1 0 11 11 0.001455 0
2 1 0 12 9 0.0209835 0
2 1 0 12 12 0.000163 0
2 2 0 1 1 2.6e-05 0
2 2 0 1 2 0.000124 0
2 2 0 1 4 2.575e-05 0
2 2 0 1 5 -1.125e-05 0
2 2 0 2 1 0.000124 0
2 2 0 2 2 -0.0008955 0
2 2 0 2 4 -0.0001595 0
2 2 0 2 5 -0.000504 0
2 2 0 3 3 -0.0077885 0
2 2 0 3 6 0.00092225 0
2 2 0 4 1 2.575e-05 0
2 2 0 4 2 1.125e-05 0
2 2 0 4 4 2.6e-05 0
2 2 0 4 5 -0.000124 0
2 2 0 5 1 0.0001595 0
2 2 0 5 2 -0.000504 0
2 2 0 5 4 -0.000124 0
2 2 0 5 5 -0.0008955 0
2 2 0 6 3 0.00092225 0
2 2 0 6 6 -0.0077885 0
2 2 0 7 7 2.6e-05 0
2 2 0 7 8 0.000124 0
2 2 0 7 10 2.575e-05 0
2 2 0 7 11 -1.125e-05 0
2 2 0 8 7 0.000124 0
2 2 0 8 8 -0.0008955 0
2 2 0 8 10 -0.0001595 0
2 2 0 8 11 -0.000504 0
2 2 0 9 9 -0.0077885 0
2 2 0 9 12 0.00092225 0
2 2 0 10 7 2.575e-05 0
2 2 0 10 8 1.125e-05 0
2 2 0 10 10 2.6e-05 0
2 2 0 10 11 -0.000124 0
2 2 0 11 7 0.0001595 0
2 2 0 11 8 -0.000504 0
2 2 0 11 10 -0.000124 0
2 2 0 11 11 -0.0008955 0
2 2 0 12 9 0.00092225 0
2 2 0 12 12 -0.0077885 0
2 3 0 1 1 -1.5e-05 0
2 3 0 1 2 4.2e-05 0
2 3 0 1 4 1.95e-05 0
2 3 0 1 5 4.175e-05 0
2 3 0 2 1 4.2e-05 0
2 3 0 2 2 -0.000119 0
2 3 0 2 4 -4.175e-05 0
2 3 0 2 5 -0.0001845 0
2 3 0 3 3 0.000805 0
2 3 0 3 6 0.0028475 0
2 3 0 4 4 1.6e-05 0
2 3 0 4 5 -2.275e-05 0
2 3 0 5 4 -2.275e-05 0
2 3 0 5 5 -0.00013 0
2 3 0 6 6 -0.0007985 0
2 3 0 7 7 -1.5e-05 0
2 3 0 7 8 4.2e-05 0
2 3 0 7 10 1.95e-05 0
2 3 0 7 11 4.175e-05 0
2 3 0 8 7 4.2e-05 0
2 3 0 8 8 -0.000119 0
2 3 0 8 10 -4.175e-05 0
2 3 0 8 11 -0.0001845 0
2 3 0 9 9 0.000805 0
2 3 0 9 12 0.0028475 0
2 3 0 10 10 1.6e-05 0
2 3 0 10 11 -2.275e-05 0
2 3 0 11 10 -2.275e-05 0
2 3 0 11 11 -0.00013 0
2 3 0 12 12 -0.0007985 0
3 -3 0 1 1 4.5e-05 0
3 -3 0 1 2 -2e-06 0
3 -3 0 2 1 -2e-06 0
3 -3 0 2 2 2.6e-05 0
3 -3 0 3 3 -0.000309 0
3 -3 0 4 1 -0.0001845 0
3 -3 0 4 2 -4.175e-05 0
3 -3 0 4 4 4.5e-05 0
3 -3 0 4 5 2e-06 0
3 -3 0 5 1 4.175e-05 0
3 -3 0 5 2 1.95e-05 0
3 -3 0 5 4 2e-06 0
3 -3 0 5 5 2.6e-05 0
3 -3 0 6 3 0.0028475 0
3 -3 0 6 6 -0.000309 0
3 -3 0 7 7 4.5e-05 0
3 -3 0 7 8 -2e-06 0
3 -3 0 8 7 -2e-06 0
3 -3 0 8 8 2.6e-05 0
3 -3 0 9 9 -0.000309 0
3 -3 0 10 7 -0.0001845 0
3 -3 0 10 8 -4.175e-05 0
3 -3 0 10 10 4.5e-05 0
3 -3 0 10 11 2e-06 0
3 -3 0 11 7 4.175e-05 0
3 -3 0 11 8 1.95e-05 0
3 -3 0 11 10 2e-06 0
3 -3 0 11 11 2.6e-05 0
3 -3 0 12 9 0.0028475 0
3 -3 0 12 12 -0.000309 0
3 -2 0 1 1 -0.000119 0
3 -2 0 1 2 -4.2e-05 0
3 -2 0 2 1 -4.2e-05 0
3 -2 0 2 2 -1.5e-05 0
3 -2 0 3 3 0.000805 0
3 -2 0 4 1 -0.000504 0
3 -2 0 4 2 -0.0001595 0
3 -2 0 4 4 -0.00013 0
3 -2 0 4 5 2.275e-05 0
3 -2 0 5 1 -1.125e-05 0
3 -2 0 5 2 2.575e-05 0
3 -2 0 5 4 2.275e-05 0
3 -2 0 5 5 1.6e-05 0
3 -2 0 6 3 0.00092225 0
3 -2 0 6 6 -0.0007985 0
3 -2 0 7 7 -0.000119 0
3 -2 0 7 8 -4.2e-05 0
3 -2 0 8 7 -4.2e-05 0
3 -2 0 8 8 -1.5e-05 0
3 -2 0 9 9 0.000805 0
3 -2 0 10 7 -0.000504 0
3 -2 0 10 8 -0.0001595 0
3 -2 0 10 10 -0.00013 0
3 -2 0 10 11 2.275e-05 0
3 -2 0 11 7 -1.125e-05 0
3 -2 0 11 8 2.575e-05 0
3 -2 0 11 10 2.275e-05 0
3 -2 0 11 11 1.6e-05 0
3 -2 0 12 9 0.00092225 0
3 -2 0 12 12 -0.0007985 0
3 -1 0 1 1 -3.3e-05 0
3 -1 0 1 2 -7.5e-05 0
3 -1 0 2 1 -7.5e-05 0
3 -1 0 2 2 -1.1e-05 0
3 -1 0 3 3 -0.000283 0
3 -1 0 4 1 0.0004915 0
3 -1 0 4 2 0.0003645 0
3 -1 0 4 4 -7e-06 0
3 -1 0 4 5 -7.025e-05 0
3 -1 0 5 1 0.00017225 0
3 -1 0 5 2 -0.00011525 0
3 -1 0 5 4 -7.025e-05 0
3 -1 0 5 5 9e-06 0
3 -1 0 6 3 -0.0014475 0
3 -1 0 6 6 -0.0014845 0
3 -1 0 7 7 -3.3e-05 0
3 -1 0 7 8 -7.5e-05 0
3 -1 0 8 7 -7.5e-05 0
3 -1 0 8 8 -1.1e-05 0
3 -1 0 9 9 -0.000283 0
3 -1 0 10 7 0.0004915 0
3 -1 0 10 8 0.0003645 0
3 -1 0 10 10 -7e-06 0
3 -1 0 10 11 -7.025e-05 0
3 -1 0 11 7 0.00017225 0
3 -1 0 11 8 -0.00011525 0
3 -1 0 11 10 -7.025e-05 0
3 -1 0 11 11 9e-06 0
3 -1 0 12 9 -0.0014475 0
3 -1 0 12 12 -0.0014845 0
3 0 0 1 1 -2.35e-05 0
3 0 0 1 2 0.0001125 0
3 0 0 2 1 0.0001125 0
3 0 0 2 2 2.35e-05 0
3 0 0 3 3 -0.0018525 0
3 0 0 4 1 -0.00011525 0
3 0 0 4 2 0.0003645 0
3 0 0 4 4 2.35e-05 0
3 0 0 4 5 0.0001125 0
3 0 0 5 1 0.00017225 0
3 0 0 5 2 0.0004915 0
3 0 0 5 4 0.0001125 0
3 0 0 5 5 -2.35e-05 0
3 0 0 6 3 -0.0014475 0
3 0 0 6 6 -0.0018525 0
3 0 0 7 7 -2.35e-05 0
3 0 0 7 8 0.0001125 0
3 0 0 8 7 0.0001125 0
3 0 0 8 8 2.35e-05 0
3 0 0 9 9 -0.0018525 0
3 0 0 10 7 -0.00011525 0
3 0 0 10 8 0.0003645 0
3 0 0 10 10 2.35e-05 0
3 0 0 10 11 0.0001125 0
3 0 0 11 7 0.00017225 0
3 0 0 11 8 0.0004915 0
3 0 0 11 10 0.0001125 0
3 0 0 11 11 -2.35e-05 0
3 0 0 12 9 -0.0014475 0
3 0 0 12 12 -0.0018525 0
3 1 0 1 1 9e-06 0
3 1 0 1 2 -7.025e-05 0
3 1 0 2 1 -7.025e-05 0
3 1 0 2 2 -7e-06 0
3 1 0 3 3 -0.0014845 0
3 1 0 4 1 2.575e-05 0
3 1 0 4 2 -0.0001595 0
3 1 0 4 4 -1.1e-05 0
3 1 0 4 5 -7.5e-05 0
3 1 0 5 1 -1.125e-05 0
3 1 0 5 2 -0.000504 0
3 1 0 5 4 -7.5e-05 0
3 1 0 5 5 -3.3e-05 0
3 1 0 6 3 0.00092225 0
3 1 0 6 6 -0.000283 0
3 1 0 7 7 9e-06 0
3 1 0 7 8 -7.025e-05 0
3 1 0 8 7 -7.025e-05 0
3 1 0 8 8 -7e-06 0
3 1 0 9 9 -0.0014845 0
3 1 0 10 7 2.575e-05 0
3 1 0 10 8 -0.0001595 0
3 1 0 10 10 -1.1e-05 0
3 1 0 10 11 -7.5e-05 0
3 1 0 11 7 -1.125e-05 0
3 1 0 11 8 -0.000504 0
3 1 0 11 10 -7.5e-05 0
3 1 0 11 11 -3.3e-05 0
3 1 0 12 9 0.00092225 0
3 1 0 12 12 -0.000283 0
3 2 0 1 1 1.6e-05 0
3 2 0 1 2 2.275e-05 0
3 2 0 2 1 2.275e-05 0
3 2 0 2 2 -0.00013 0
3 2 0 3 3 -0.0007985 0
3 2 0 4 1 1.95e-05 0
3 2 0 4 2 -4.175e-05 0
3 2 0 4 4 -1.5e-05 0
3 2 0 4 5 -4.2e-05 0
3 2 0 5 1 4.175e-05 0
3 2 0 5 2 -0.0001845 0
3 2 0 5 4 -4.2e-05 0
3 2 0 5 5 -0.000119 0
3 2 0 6 3 0.0028475 0
3 2 0 6 6 0.000805 0
3 2 0 7 7 1.6e-05 0
3 2 0 7 8 2.275e-05 0
3 2 0 8 7 2.275e-05 0
3 2 0 8 8 -0.00013 0
3 2 0 9 9 -0.0007985 0
3 2 0 10 7 1.95e-05 0
3 2 0 10 8 -4.175e-05 0
3 2 0 10 10 -1.5e-05 0
3 2 0 10 11 -4.2e-05 0
3 2 0 11 7 4.175e-05 0
3 2 0 11 8 -0.0001845 0
3 2 0 11 10 -4.2e-05 0
3 2 0 11 11 -0.000119 0
3 2 0 12 9 0.0028475 0
3 2 0 12 12 0.000805 0
3 3 0 1 1 2.6e-05 0
3 3 0 1 2 2e-06 0
3 3 0 2 1 2e-06 0
3 3 0 2 2 4.5e-05 0
3 3 0 3 3 -0.000309 0
3 3 0 4 4 2.6e-05 0
3 3 0 4 5 -2e-06 0
3 3 0 5 4 -2e-06 0
3 3 0 5 5 4.5e-05 0
3 3 0 6 6 -0.000309 0
3 3 0 7 7 2.6e-05 0
3 3 0 7 8 2e-06 0
3 3 0 8 7 2e-06 0
3 3 0 8 8 4.5e-05 0
3 3 0 9 9 -0.000309 0
3 3 0 10 10 2.6e-05 0
3 3 0 10 11 -2e-06 0
3 3 0 11 10 -2e-06 0
3 3 0 11 11 4.5e-05 0
3 3 0 12 12 -0.000309 0
