 written on 17Oct2022 at 11:12:02 , onsiteshift=0.0531, symmetrized
6
49
   1   1   1   1   1   1   1   1   1   1   1   1   1   1   1
   1   1   1   1   1   1   1   1   1   1   1   1   1   1   1
   1   1   1   1   1   1   1   1   1   1   1   1   1   1   1
   1   1   1   1
-3 -3 0 1 1 3.9e-05 0
-3 -3 0 1 2 1.5e-06 0
-3 -3 0 2 1 1.5e-06 0
-3 -3 0 2 2 7.4e-05 0
-3 -3 0 3 3 -0.001709 0
-3 -3 0 4 4 3.9e-05 0
-3 -3 0 4 5 -1.5e-06 0
-3 -3 0 5 4 -1.5e-06 0
-3 -3 0 5 5 7.4e-05 0
-3 -3 0 6 6 -0.001709 0
-3 -2 0 1 1 2e-05 0
-3 -2 0 1 2 1.975e-05 0
-3 -2 0 1 4 2e-05 0
-3 -2 0 1 5 4e-05 0
-3 -2 0 2 1 1.975e-05 0
-3 -2 0 2 2 -0.000169 0
-3 -2 0 2 4 -4e-05 0
-3 -2 0 2 5 -0.000253 0
-3 -2 0 3 3 -0.002566 0
-3 -2 0 3 6 0.00196875 0
-3 -2 0 4 4 -9e-06 0
-3 -2 0 4 5 -4.075e-05 0
-3 -2 0 5 4 -4.075e-05 0
-3 -2 0 5 5 -0.000157 0
-3 -2 0 6 6 -0.001102 0
-3 -1 0 1 1 9e-06 0
-3 -1 0 1 2 -9.5e-05 0
-3 -1 0 1 4 2.95e-05 0
-3 -1 0 1 5 -5.4e-05 0
-3 -1 0 2 1 -9.5e-05 0
-3 -1 0 2 2 -1.5e-05 0
-3 -1 0 2 4 -0.00018875 0
-3 -1 0 2 5 -0.000684 0
-3 -1 0 3 3 -0.003641 0
-3 -1 0 3 6 0.00017975 0
-3 -1 0 4 4 -1.4e-05 0
-3 -1 0 4 5 -9.5e-05 0
-3 -1 0 5 4 -9.5e-05 0
-3 -1 0 5 5 -3.1e-05 0
-3 -1 0 6 6 -0.002851 0
-3 0 0 1 1 -3.55e-05 0
-3 0 0 1 2 0.00012175 0
-3 0 0 1 4 -0.00012125 0
-3 0 0 1 5 0.00020775 0
-3 0 0 2 1 0.00012175 0
-3 0 0 2 2 1e-06 0
-3 0 0 2 4 0.0003645 0
-3 0 0 2 5 0.0005275 0
-3 0 0 3 3 -0.0045375 0
-3 0 0 3 6 -0.002491 0
-3 0 0 4 4 1e-06 0
-3 0 0 4 5 0.00012175 0
-3 0 0 5 4 0.00012175 0
-3 0 0 5 5 -3.55e-05 0
-3 0 0 6 6 -0.0045375 0
-3 1 0 1 1 -3.1e-05 0
-3 1 0 1 2 -9.5e-05 0
-3 1 0 1 4 0.0005275 0
-3 1 0 1 5 0.00020775 0
-3 1 0 2 1 -9.5e-05 0
-3 1 0 2 2 -1.4e-05 0
-3 1 0 2 4 0.0003645 0
-3 1 0 2 5 -0.00012125 0
-3 1 0 3 3 -0.002851 0
-3 1 0 3 6 -0.002491 0
-3 1 0 4 4 -1.5e-05 0
-3 1 0 4 5 -9.5e-05 0
-3 1 0 5 4 -9.5e-05 0
-3 1 0 5 5 9e-06 0
-3 1 0 6 6 -0.003641 0
-3 2 0 1 1 -0.000157 0
-3 2 0 1 2 -4.075e-05 0
-3 2 0 1 4 -0.000684 0
-3 2 0 1 5 -5.4e-05 0
-3 2 0 2 1 -4.075e-05 0
-3 2 0 2 2 -9e-06 0
-3 2 0 2 4 -0.00018875 0
-3 2 0 2 5 2.95e-05 0
-3 2 0 3 3 -0.001102 0
-3 2 0 3 6 0.00017975 0
-3 2 0 4 4 -0.000169 0
-3 2 0 4 5 1.975e-05 0
-3 2 0 5 4 1.975e-05 0
-3 2 0 5 5 2e-05 0
-3 2 0 6 6 -0.002566 0
-3 3 0 1 1 7.4e-05 0
-3 3 0 1 2 -1.5e-06 0
-3 3 0 1 4 -0.000253 0
-3 3 0 1 5 4e-05 0
-3 3 0 2 1 -1.5e-06 0
-3 3 0 2 2 3.9e-05 0
-3 3 0 2 4 -4e-05 0
-3 3 0 2 5 2e-05 0
-3 3 0 3 3 -0.001709 0
-3 3 0 3 6 0.00196875 0
-3 3 0 4 4 7.4e-05 0
-3 3 0 4 5 1.5e-06 0
-3 3 0 5 4 1.5e-06 0
-3 3 0 5 5 3.9e-05 0
-3 3 0 6 6 -0.001709 0
-2 -3 0 1 1 -9e-06 0
-2 -3 0 1 2 4.075e-05 0
-2 -3 0 2 1 4.075e-05 0
-2 -3 0 2 2 -0.000157 0
-2 -3 0 3 3 -0.001102 0
-2 -3 0 4 1 2e-05 0
-2 -3 0 4 2 -4e-05 0
-2 -3 0 4 4 2e-05 0
-2 -3 0 4 5 -1.975e-05 0
-2 -3 0 5 1 4e-05 0
-2 -3 0 5 2 -0.000253 0
-2 -3 0 5 4 -1.975e-05 0
-2 -3 0 5 5 -0.000169 0
-2 -3 0 6 3 0.00196875 0
-2 -3 0 6 6 -0.002566 0
-2 -2 0 1 1 3.45e-05 0
-2 -2 0 1 2 0.0001195 0
-2 -2 0 1 4 2.95e-05 0
-2 -2 0 1 5 0.00018875 0
-2 -2 0 2 1 0.0001195 0
-2 -2 0 2 2 -0.0012545 0
-2 -2 0 2 4 5.4e-05 0
-2 -2 0 2 5 -0.000684 0
-2 -2 0 3 3 -0.008559 0
-2 -2 0 3 6 0.00017975 0
-2 -2 0 4 1 2.95e-05 0
-2 -2 0 4 2 -0.00018875 0
-2 -2 0 4 4 3.45e-05 0
-2 -2 0 4 5 -0.0001195 0
-2 -2 0 5 1 -5.4e-05 0
-2 -2 0 5 2 -0.000684 0
-2 -2 0 5 4 -0.0001195 0
-2 -2 0 5 5 -0.0012545 0
-2 -2 0 6 3 0.00017975 0
-2 -2 0 6 6 -0.008559 0
-2 -1 0 1 1 1.9e-05 0
-2 -1 0 1 2 -0.0003005 0
-2 -1 0 1 4 0.000152 0
-2 -1 0 1 5 -0.000438 0
-2 -1 0 2 1 -0.0003005 0
-2 -1 0 2 2 0.001753 0
-2 -1 0 2 4 0.000438 0
-2 -1 0 2 5 0.002058 0
-2 -1 0 3 3 -0.012708 0
-2 -1 0 3 6 0.0130195 0
-2 -1 0 4 1 -0.00012125 0
-2 -1 0 4 2 0.0003645 0
-2 -1 0 4 4 0.0002835 0
-2 -1 0 4 5 0.0002835 0
-2 -1 0 5 1 0.00020775 0
-2 -1 0 5 2 0.0005275 0
-2 -1 0 5 4 0.0002835 0
-2 -1 0 5 5 0.0016525 0
-2 -1 0 6 3 -0.002491 0
-2 -1 0 6 6 -0.004399 0
-2 0 0 1 1 0.000743 0
-2 0 0 1 2 0.0022045 0
-2 0 0 1 4 -0.00043925 0
-2 0 0 1 5 0.0001505 0
-2 0 0 2 1 0.0022045 0
-2 0 0 2 2 0.0009705 0
-2 0 0 2 4 0.00364625 0
-2 0 0 2 5 0.0143873 0
-2 0 0 3 3 -0.018395 0
-2 0 0 3 6 -0.0109892 0
-2 0 0 4 1 0.0005275 0
-2 0 0 4 2 0.0003645 0
-2 0 0 4 4 0.0009705 0
-2 0 0 4 5 0.0022045 0
-2 0 0 5 1 0.00020775 0
-2 0 0 5 2 -0.00012125 0
-2 0 0 5 4 0.0022045 0
-2 0 0 5 5 0.000743 0
-2 0 0 6 3 -0.002491 0
-2 0 0 6 6 -0.018395 0
-2 1 0 1 1 0.0016525 0
-2 1 0 1 2 0.0002835 0
-2 1 0 1 4 0.0143873 0
-2 1 0 1 5 0.0001505 0
-2 1 0 2 1 0.0002835 0
-2 1 0 2 2 0.0002835 0
-2 1 0 2 4 0.00364625 0
-2 1 0 2 5 -0.00043925 0
-2 1 0 3 3 -0.004399 0
-2 1 0 3 6 -0.0109892 0
-2 1 0 4 1 -0.000684 0
-2 1 0 4 2 -0.00018875 0
-2 1 0 4 4 0.001753 0
-2 1 0 4 5 -0.0003005 0
-2 1 0 5 1 -5.4e-05 0
-2 1 0 5 2 2.95e-05 0
-2 1 0 5 4 -0.0003005 0
-2 1 0 5 5 1.9e-05 0
-2 1 0 6 3 0.00017975 0
-2 1 0 6 6 -0.012708 0
-2 2 0 1 1 -0.0012545 0
-2 2 0 1 2 -0.0001195 0
-2 2 0 1 4 0.002058 0
-2 2 0 1 5 -0.000438 0
-2 2 0 2 1 -0.0001195 0
-2 2 0 2 2 3.45e-05 0
-2 2 0 2 4 0.000438 0
-2 2 0 2 5 0.000152 0
-2 2 0 3 3 -0.008559 0
-2 2 0 3 6 0.0130195 0
-2 2 0 4 1 -0.000253 0
-2 2 0 4 2 -4e-05 0
-2 2 0 4 4 -0.0012545 0
-2 2 0 4 5 0.0001195 0
-2 2 0 5 1 4e-05 0
-2 2 0 5 2 2e-05 0
-2 2 0 5 4 0.0001195 0
-2 2 0 5 5 3.45e-05 0
-2 2 0 6 3 0.00196875 0
-2 2 0 6 6 -0.008559 0
-2 3 0 1 1 -0.000169 0
-2 3 0 1 2 -1.975e-05 0
-2 3 0 1 4 -0.000684 0
-2 3 0 1 5 0.00018875 0
-2 3 0 2 1 -1.975e-05 0
-2 3 0 2 2 2e-05 0
-2 3 0 2 4 5.4e-05 0
-2 3 0 2 5 2.95e-05 0
-2 3 0 3 3 -0.002566 0
-2 3 0 3 6 0.00017975 0
-2 3 0 4 4 -0.000157 0
-2 3 0 4 5 4.075e-05 0
-2 3 0 5 4 4.075e-05 0
-2 3 0 5 5 -9e-06 0
-2 3 0 6 6 -0.001102 0
-1 -3 0 1 1 -1.4e-05 0
-1 -3 0 1 2 9.5e-05 0
-1 -3 0 2 1 9.5e-05 0
-1 -3 0 2 2 -3.1e-05 0
-1 -3 0 3 3 -0.002851 0
-1 -3 0 4 1 2.95e-05 0
-1 -3 0 4 2 5.4e-05 0
-1 -3 0 4 4 9e-06 0
-1 -3 0 4 5 9.5e-05 0
-1 -3 0 5 1 0.00018875 0
-1 -3 0 5 2 -0.000684 0
-1 -3 0 5 4 9.5e-05 0
-1 -3 0 5 5 -1.5e-05 0
-1 -3 0 6 3 0.00017975 0
-1 -3 0 6 6 -0.003641 0
-1 -2 0 1 1 0.0002835 0
-1 -2 0 1 2 -0.0002835 0
-1 -2 0 1 4 -0.00012125 0
-1 -2 0 1 5 -0.0003645 0
-1 -2 0 2 1 -0.0002835 0
-1 -2 0 2 2 0.0016525 0
-1 -2 0 2 4 -0.00020775 0
-1 -2 0 2 5 0.0005275 0
-1 -2 0 3 3 -0.004399 0
-1 -2 0 3 6 -0.002491 0
-1 -2 0 4 1 0.000152 0
-1 -2 0 4 2 0.000438 0
-1 -2 0 4 4 1.9e-05 0
-1 -2 0 4 5 0.0003005 0
-1 -2 0 5 1 -0.000438 0
-1 -2 0 5 2 0.002058 0
-1 -2 0 5 4 0.0003005 0
-1 -2 0 5 5 0.001753 0
-1 -2 0 6 3 0.0130195 0
-1 -2 0 6 6 -0.012708 0
-1 -1 0 1 1 0.002022 0
-1 -1 0 1 2 -0.0060975 0
-1 -1 0 1 4 -0.00043925 0
-1 -1 0 1 5 -0.00364625 0
-1 -1 0 2 1 -0.0060975 0
-1 -1 0 2 2 0.047753 0
-1 -1 0 2 4 -0.0001505 0
-1 -1 0 2 5 0.0143873 0
-1 -1 0 3 3 -0.027658 0
-1 -1 0 3 6 -0.0109892 0
-1 -1 0 4 1 -0.00043925 0
-1 -1 0 4 2 0.00364625 0
-1 -1 0 4 4 0.002022 0
-1 -1 0 4 5 0.00609725 0
-1 -1 0 5 1 0.0001505 0
-1 -1 0 5 2 0.0143873 0
-1 -1 0 5 4 0.00609725 0
-1 -1 0 5 5 0.047753 0
-1 -1 0 6 3 -0.0109893 0
-1 -1 0 6 6 -0.027658 0
-1 0 0 1 1 0.02745 0
-1 0 0 1 2 0.0123622 0
-1 0 0 1 4 -0.0372535 0
-1 0 0 1 5 0.058192 0
-1 0 0 2 1 0.0123623 0
-1 0 0 2 2 0.011464 0
-1 0 0 2 4 -0.058192 0
-1 0 0 2 5 -0.222608 0
-1 0 0 3 3 -0.126486 0
-1 0 0 3 6 -0.283161 0
-1 0 0 4 1 0.0143872 0
-1 0 0 4 2 0.00364625 0
-1 0 0 4 4 0.011464 0
-1 0 0 4 5 0.0123622 0
-1 0 0 5 1 0.0001505 0
-1 0 0 5 2 -0.00043925 0
-1 0 0 5 4 0.0123623 0
-1 0 0 5 5 0.02745 0
-1 0 0 6 3 -0.0109892 0
-1 0 0 6 6 -0.126486 0
-1 1 0 1 1 0.047753 0
-1 1 0 1 2 0.0060975 0
-1 1 0 1 4 -0.222608 0
-1 1 0 1 5 0.058192 0
-1 1 0 2 1 0.0060975 0
-1 1 0 2 2 0.002022 0
-1 1 0 2 4 -0.058192 0
-1 1 0 2 5 -0.0372535 0
-1 1 0 3 3 -0.027658 0
-1 1 0 3 6 -0.283161 0
-1 1 0 4 1 0.002058 0
-1 1 0 4 2 0.000438 0
-1 1 0 4 4 0.047753 0
-1 1 0 4 5 -0.00609725 0
-1 1 0 5 1 -0.000438 0
-1 1 0 5 2 0.000152 0
-1 1 0 5 4 -0.00609725 0
-1 1 0 5 5 0.002022 0
-1 1 0 6 3 0.0130195 0
-1 1 0 6 6 -0.027658 0
-1 2 0 1 1 0.001753 0
-1 2 0 1 2 0.0003005 0
-1 2 0 1 4 0.0143873 0
-1 2 0 1 5 -0.00364625 0
-1 2 0 2 1 0.0003005 0
-1 2 0 2 2 1.9e-05 0
-1 2 0 2 4 -0.0001505 0
-1 2 0 2 5 -0.00043925 0
-1 2 0 3 3 -0.012708 0
-1 2 0 3 6 -0.0109892 0
-1 2 0 4 1 -0.000684 0
-1 2 0 4 2 5.4e-05 0
-1 2 0 4 4 0.0016525 0
-1 2 0 4 5 -0.0002835 0
-1 2 0 5 1 0.00018875 0
-1 2 0 5 2 2.95e-05 0
-1 2 0 5 4 -0.0002835 0
-1 2 0 5 5 0.0002835 0
-1 2 0 6 3 0.00017975 0
-1 2 0 6 6 -0.004399 0
-1 3 0 1 1 -1.5e-05 0
-1 3 0 1 2 9.5e-05 0
-1 3 0 1 4 0.0005275 0
-1 3 0 1 5 -0.0003645 0
-1 3 0 2 1 9.5e-05 0
-1 3 0 2 2 9e-06 0
-1 3 0 2 4 -0.00020775 0
-1 3 0 2 5 -0.00012125 0
-1 3 0 3 3 -0.003641 0
-1 3 0 3 6 -0.002491 0
-1 3 0 4 4 -3.1e-05 0
-1 3 0 4 5 9.5e-05 0
-1 3 0 5 4 9.5e-05 0
-1 3 0 5 5 -1.4e-05 0
-1 3 0 6 6 -0.002851 0
0 -3 0 1 1 1e-06 0
0 -3 0 1 2 -0.00012175 0
0 -3 0 2 1 -0.00012175 0
0 -3 0 2 2 -3.55e-05 0
0 -3 0 3 3 -0.0045375 0
0 -3 0 4 1 -0.00012125 0
0 -3 0 4 2 -0.00020775 0
0 -3 0 4 4 -3.55e-05 0
0 -3 0 4 5 -0.00012175 0
0 -3 0 5 1 -0.0003645 0
0 -3 0 5 2 0.0005275 0
0 -3 0 5 4 -0.00012175 0
0 -3 0 5 5 1e-06 0
0 -3 0 6 3 -0.002491 0
0 -3 0 6 6 -0.0045375 0
0 -2 0 1 1 0.0009705 0
0 -2 0 1 2 -0.0022045 0
0 -2 0 1 4 0.0005275 0
0 -2 0 1 5 -0.0003645 0
0 -2 0 2 1 -0.0022045 0
0 -2 0 2 2 0.000743 0
0 -2 0 2 4 -0.00020775 0
0 -2 0 2 5 -0.00012125 0
0 -2 0 3 3 -0.018395 0
0 -2 0 3 6 -0.002491 0
0 -2 0 4 1 -0.00043925 0
0 -2 0 4 2 -0.0001505 0
0 -2 0 4 4 0.000743 0
0 -2 0 4 5 -0.0022045 0
0 -2 0 5 1 -0.00364625 0
0 -2 0 5 2 0.0143872 0
0 -2 0 5 4 -0.0022045 0
0 -2 0 5 5 0.0009705 0
0 -2 0 6 3 -0.0109892 0
0 -2 0 6 6 -0.018395 0
0 -1 0 1 1 0.011464 0
0 -1 0 1 2 -0.0123623 0
0 -1 0 1 4 0.0143873 0
0 -1 0 1 5 -0.00364625 0
0 -1 0 2 1 -0.0123622 0
0 -1 0 2 2 0.02745 0
0 -1 0 2 4 -0.0001505 0
0 -1 0 2 5 -0.00043925 0
0 -1 0 3 3 -0.126486 0
0 -1 0 3 6 -0.0109892 0
0 -1 0 4 1 -0.0372535 0
0 -1 0 4 2 -0.058192 0
0 -1 0 4 4 0.02745 0
0 -1 0 4 5 -0.0123623 0
0 -1 0 5 1 0.058192 0
0 -1 0 5 2 -0.222608 0
0 -1 0 5 4 -0.0123622 0
0 -1 0 5 5 0.011464 0
0 -1 0 6 3 -0.283161 0
0 -1 0 6 6 -0.126486 0
0 0 0 1 1 -0.150599 0
0 0 0 1 4 -0.222608 0
0 0 0 1 5 0.058192 0
0 0 0 2 2 -0.150599 0
0 0 0 2 4 -0.058192 0
0 0 0 2 5 -0.0372535 0
0 0 0 3 3 -0.427261 0
0 0 0 3 6 -0.283161 0
0 0 0 4 1 -0.222608 0
0 0 0 4 2 -0.058192 0
0 0 0 4 4 -0.150599 0
0 0 0 5 1 0.058192 0
0 0 0 5 2 -0.0372535 0
0 0 0 5 5 -0.150599 0
0 0 0 6 3 -0.283161 0
0 0 0 6 6 -0.427261 0
0 1 0 1 1 0.011464 0
0 1 0 1 2 -0.0123623 0
0 1 0 1 4 -0.0372535 0
0 1 0 1 5 0.058192 0
0 1 0 2 1 -0.0123622 0
0 1 0 2 2 0.02745 0
0 1 0 2 4 -0.058192 0
0 1 0 2 5 -0.222608 0
0 1 0 3 3 -0.126486 0
0 1 0 3 6 -0.283161 0
0 1 0 4 1 0.0143873 0
0 1 0 4 2 -0.0001505 0
0 1 0 4 4 0.02745 0
0 1 0 4 5 -0.0123623 0
0 1 0 5 1 -0.00364625 0
0 1 0 5 2 -0.00043925 0
0 1 0 5 4 -0.0123622 0
0 1 0 5 5 0.011464 0
0 1 0 6 3 -0.0109893 0
0 1 0 6 6 -0.126486 0
0 2 0 1 1 0.0009705 0
0 2 0 1 2 -0.0022045 0
0 2 0 1 4 -0.00043925 0
0 2 0 1 5 -0.00364625 0
0 2 0 2 1 -0.0022045 0
0 2 0 2 2 0.000743 0
0 2 0 2 4 -0.0001505 0
0 2 0 2 5 0.0143873 0
0 2 0 3 3 -0.018395 0
0 2 0 3 6 -0.0109892 0
0 2 0 4 1 0.0005275 0
0 2 0 4 2 -0.00020775 0
0 2 0 4 4 0.000743 0
0 2 0 4 5 -0.0022045 0
0 2 0 5 1 -0.0003645 0
0 2 0 5 2 -0.00012125 0
0 2 0 5 4 -0.0022045 0
0 2 0 5 5 0.0009705 0
0 2 0 6 3 -0.002491 0
0 2 0 6 6 -0.018395 0
0 3 0 1 1 1e-06 0
0 3 0 1 2 -0.00012175 0
0 3 0 1 4 -0.00012125 0
0 3 0 1 5 -0.0003645 0
0 3 0 2 1 -0.00012175 0
0 3 0 2 2 -3.55e-05 0
0 3 0 2 4 -0.00020775 0
0 3 0 2 5 0.0005275 0
0 3 0 3 3 -0.0045375 0
0 3 0 3 6 -0.002491 0
0 3 0 4 4 -3.55e-05 0
0 3 0 4 5 -0.00012175 0
0 3 0 5 4 -0.00012175 0
0 3 0 5 5 1e-06 0
0 3 0 6 6 -0.0045375 0
1 -3 0 1 1 -1.5e-05 0
1 -3 0 1 2 9.5e-05 0
1 -3 0 2 1 9.5e-05 0
1 -3 0 2 2 9e-06 0
1 -3 0 3 3 -0.003641 0
1 -3 0 4 1 0.0005275 0
1 -3 0 4 2 -0.00020775 0
1 -3 0 4 4 -3.1e-05 0
1 -3 0 4 5 9.5e-05 0
1 -3 0 5 1 -0.0003645 0
1 -3 0 5 2 -0.00012125 0
1 -3 0 5 4 9.5e-05 0
1 -3 0 5 5 -1.4e-05 0
1 -3 0 6 3 -0.002491 0
1 -3 0 6 6 -0.002851 0
1 -2 0 1 1 0.001753 0
1 -2 0 1 2 0.0003005 0
1 -2 0 1 4 -0.000684 0
1 -2 0 1 5 0.00018875 0
1 -2 0 2 1 0.0003005 0
1 -2 0 2 2 1.9e-05 0
1 -2 0 2 4 5.4e-05 0
1 -2 0 2 5 2.95e-05 0
1 -2 0 3 3 -0.012708 0
1 -2 0 3 6 0.00017975 0
1 -2 0 4 1 0.0143873 0
1 -2 0 4 2 -0.0001505 0
1 -2 0 4 4 0.0016525 0
1 -2 0 4 5 -0.0002835 0
1 -2 0 5 1 -0.00364625 0
1 -2 0 5 2 -0.00043925 0
1 -2 0 5 4 -0.0002835 0
1 -2 0 5 5 0.0002835 0
1 -2 0 6 3 -0.0109893 0
1 -2 0 6 6 -0.004399 0
1 -1 0 1 1 0.047753 0
1 -1 0 1 2 0.0060975 0
1 -1 0 1 4 0.002058 0
1 -1 0 1 5 -0.000438 0
1 -1 0 2 1 0.0060975 0
1 -1 0 2 2 0.002022 0
1 -1 0 2 4 0.000438 0
1 -1 0 2 5 0.000152 0
1 -1 0 3 3 -0.027658 0
1 -1 0 3 6 0.0130195 0
1 -1 0 4 1 -0.222608 0
1 -1 0 4 2 -0.058192 0
1 -1 0 4 4 0.047753 0
1 -1 0 4 5 -0.00609725 0
1 -1 0 5 1 0.058192 0
1 -1 0 5 2 -0.0372535 0
1 -1 0 5 4 -0.00609725 0
1 -1 0 5 5 0.002022 0
1 -1 0 6 3 -0.283161 0
1 -1 0 6 6 -0.027658 0
1 0 0 1 1 0.02745 0
1 0 0 1 2 0.0123622 0
1 0 0 1 4 0.0143873 0
1 0 0 1 5 0.0001505 0
1 0 0 2 1 0.0123623 0
1 0 0 2 2 0.011464 0
1 0 0 2 4 0.00364625 0
1 0 0 2 5 -0.00043925 0
1 0 0 3 3 -0.126486 0
1 0 0 3 6 -0.0109892 0
1 0 0 4 1 -0.0372535 0
1 0 0 4 2 -0.058192 0
1 0 0 4 4 0.011464 0
1 0 0 4 5 0.0123622 0
1 0 0 5 1 0.058192 0
1 0 0 5 2 -0.222608 0
1 0 0 5 4 0.0123623 0
1 0 0 5 5 0.02745 0
1 0 0 6 3 -0.283161 0
1 0 0 6 6 -0.126486 0
1 1 0 1 1 0.002022 0
1 1 0 1 2 -0.0060975 0
1 1 0 1 4 -0.00043925 0
1 1 0 1 5 0.0001505 0
1 1 0 2 1 -0.0060975 0
1 1 0 2 2 0.047753 0
1 1 0 2 4 0.00364625 0
1 1 0 2 5 0.0143873 0
1 1 0 3 3 -0.027658 0
1 1 0 3 6 -0.0109892 0
1 1 0 4 1 -0.00043925 0
1 1 0 4 2 -0.0001505 0
1 1 0 4 4 0.002022 0
1 1 0 4 5 0.00609725 0
1 1 0 5 1 -0.00364625 0
1 1 0 5 2 0.0143872 0
1 1 0 5 4 0.00609725 0
1 1 0 5 5 0.047753 0
1 1 0 6 3 -0.0109892 0
1 1 0 6 6 -0.027658 0
1 2 0 1 1 0.0002835 0
1 2 0 1 2 -0.0002835 0
1 2 0 1 4 0.000152 0
1 2 0 1 5 -0.000438 0
1 2 0 2 1 -0.0002835 0
1 2 0 2 2 0.0016525 0
1 2 0 2 4 0.000438 0
1 2 0 2 5 0.002058 0
1 2 0 3 3 -0.004399 0
1 2 0 3 6 0.0130195 0
1 2 0 4 1 -0.00012125 0
1 2 0 4 2 -0.00020775 0
1 2 0 4 4 1.9e-05 0
1 2 0 4 5 0.0003005 0
1 2 0 5 1 -0.0003645 0
1 2 0 5 2 0.0005275 0
1 2 0 5 4 0.0003005 0
1 2 0 5 5 0.001753 0
1 2 0 6 3 -0.002491 0
1 2 0 6 6 -0.012708 0
1 3 0 1 1 -1.4e-05 0
1 3 0 1 2 9.5e-05 0
1 3 0 1 4 2.95e-05 0
1 3 0 1 5 0.00018875 0
1 3 0 2 1 9.5e-05 0
1 3 0 2 2 -3.1e-05 0
1 3 0 2 4 5.4e-05 0
1 3 0 2 5 -0.000684 0
1 3 0 3 3 -0.002851 0
1 3 0 3 6 0.00017975 0
1 3 0 4 4 9e-06 0
1 3 0 4 5 9.5e-05 0
1 3 0 5 4 9.5e-05 0
1 3 0 5 5 -1.5e-05 0
1 3 0 6 6 -0.003641 0
2 -3 0 1 1 -0.000169 0
2 -3 0 1 2 -1.975e-05 0
2 -3 0 2 1 -1.975e-05 0
2 -3 0 2 2 2e-05 0
2 -3 0 3 3 -0.002566 0
2 -3 0 4 1 -0.000684 0
2 -3 0 4 2 5.4e-05 0
2 -3 0 4 4 -0.000157 0
2 -3 0 4 5 4.075e-05 0
2 -3 0 5 1 0.00018875 0
2 -3 0 5 2 2.95e-05 0
2 -3 0 5 4 4.075e-05 0
2 -3 0 5 5 -9e-06 0
2 -3 0 6 3 0.00017975 0
2 -3 0 6 6 -0.001102 0
2 -2 0 1 1 -0.0012545 0
2 -2 0 1 2 -0.0001195 0
2 -2 0 1 4 -0.000253 0
2 -2 0 1 5 4e-05 0
2 -2 0 2 1 -0.0001195 0
2 -2 0 2 2 3.45e-05 0
2 -2 0 2 4 -4e-05 0
2 -2 0 2 5 2e-05 0
2 -2 0 3 3 -0.008559 0
2 -2 0 3 6 0.00196875 0
2 -2 0 4 1 0.002058 0
2 -2 0 4 2 0.000438 0
2 -2 0 4 4 -0.0012545 0
2 -2 0 4 5 0.0001195 0
2 -2 0 5 1 -0.000438 0
2 -2 0 5 2 0.000152 0
2 -2 0 5 4 0.0001195 0
2 -2 0 5 5 3.45e-05 0
2 -2 0 6 3 0.0130195 0
2 -2 0 6 6 -0.008559 0
2 -1 0 1 1 0.0016525 0
2 -1 0 1 2 0.0002835 0
2 -1 0 1 4 -0.000684 0
2 -1 0 1 5 -5.4e-05 0
2 -1 0 2 1 0.0002835 0
2 -1 0 2 2 0.0002835 0
2 -1 0 2 4 -0.00018875 0
2 -1 0 2 5 2.95e-05 0
2 -1 0 3 3 -0.004399 0
2 -1 0 3 6 0.00017975 0
2 -1 0 4 1 0.0143872 0
2 -1 0 4 2 0.00364625 0
2 -1 0 4 4 0.001753 0
2 -1 0 4 5 -0.0003005 0
2 -1 0 5 1 0.0001505 0
2 -1 0 5 2 -0.00043925 0
2 -1 0 5 4 -0.0003005 0
2 -1 0 5 5 1.9e-05 0
2 -1 0 6 3 -0.0109892 0
2 -1 0 6 6 -0.012708 0
2 0 0 1 1 0.000743 0
2 0 0 1 2 0.0022045 0
2 0 0 1 4 0.0005275 0
2 0 0 1 5 0.00020775 0
2 0 0 2 1 0.0022045 0
2 0 0 2 2 0.0009705 0
2 0 0 2 4 0.0003645 0
2 0 0 2 5 -0.00012125 0
2 0 0 3 3 -0.018395 0
2 0 0 3 6 -0.002491 0
2 0 0 4 1 -0.00043925 0
2 0 0 4 2 0.00364625 0
2 0 0 4 4 0.0009705 0
2 0 0 4 5 0.0022045 0
2 0 0 5 1 0.0001505 0
2 0 0 5 2 0.0143873 0
2 0 0 5 4 0.0022045 0
2 0 0 5 5 0.000743 0
2 0 0 6 3 -0.0109893 0
2 0 0 6 6 -0.018395 0
2 1 0 1 1 1.9e-05 0
2 1 0 1 2 -0.0003005 0
2 1 0 1 4 -0.00012125 0
2 1 0 1 5 0.00020775 0
2 1 0 2 1 -0.0003005 0
2 1 0 2 2 0.001753 0
2 1 0 2 4 0.0003645 0
2 1 0 2 5 0.0005275 0
2 1 0 3 3 -0.012708 0
2 1 0 3 6 -0.002491 0
2 1 0 4 1 0.000152 0
2 1 0 4 2 0.000438 0
2 1 0 4 4 0.0002835 0
2 1 0 4 5 0.0002835 0
2 1 0 5 1 -0.000438 0
2 1 0 5 2 0.002058 0
2 1 0 5 4 0.0002835 0
2 1 0 5 5 0.0016525 0
2 1 0 6 3 0.0130195 0
2 1 0 6 6 -0.004399 0
2 2 0 1 1 3.45e-05 0
2 2 0 1 2 0.0001195 0
2 2 0 1 4 2.95e-05 0
2 2 0 1 5 -5.4e-05 0
2 2 0 2 1 0.0001195 0
2 2 0 2 2 -0.0012545 0
2 2 0 2 4 -0.00018875 0
2 2 0 2 5 -0.000684 0
2 2 0 3 3 -0.008559 0
2 2 0 3 6 0.00017975 0
2 2 0 4 1 2.95e-05 0
2 2 0 4 2 5.4e-05 0
2 2 0 4 4 3.45e-05 0
2 2 0 4 5 -0.0001195 0
2 2 0 5 1 0.00018875 0
2 2 0 5 2 -0.000684 0
2 2 0 5 4 -0.0001195 0
2 2 0 5 5 -0.0012545 0
2 2 0 6 3 0.00017975 0
2 2 0 6 6 -0.008559 0
2 3 0 1 1 -9e-06 0
2 3 0 1 2 4.075e-05 0
2 3 0 1 4 2e-05 0
2 3 0 1 5 4e-05 0
2 3 0 2 1 4.075e-05 0
2 3 0 2 2 -0.000157 0
2 3 0 2 4 -4e-05 0
2 3 0 2 5 -0.000253 0
2 3 0 3 3 -0.001102 0
2 3 0 3 6 0.00196875 0
2 3 0 4 4 2e-05 0
2 3 0 4 5 -1.975e-05 0
2 3 0 5 4 -1.975e-05 0
2 3 0 5 5 -0.000169 0
2 3 0 6 6 -0.002566 0
3 -3 0 1 1 7.4e-05 0
3 -3 0 1 2 -1.5e-06 0
3 -3 0 2 1 -1.5e-06 0
3 -3 0 2 2 3.9e-05 0
3 -3 0 3 3 -0.001709 0
3 -3 0 4 1 -0.000253 0
3 -3 0 4 2 -4e-05 0
3 -3 0 4 4 7.4e-05 0
3 -3 0 4 5 1.5e-06 0
3 -3 0 5 1 4e-05 0
3 -3 0 5 2 2e-05 0
3 -3 0 5 4 1.5e-06 0
3 -3 0 5 5 3.9e-05 0
3 -3 0 6 3 0.00196875 0
3 -3 0 6 6 -0.001709 0
3 -2 0 1 1 -0.000157 0
3 -2 0 1 2 -4.075e-05 0
3 -2 0 2 1 -4.075e-05 0
3 -2 0 2 2 -9e-06 0
3 -2 0 3 3 -0.001102 0
3 -2 0 4 1 -0.000684 0
3 -2 0 4 2 -0.00018875 0
3 -2 0 4 4 -0.000169 0
3 -2 0 4 5 1.975e-05 0
3 -2 0 5 1 -5.4e-05 0
3 -2 0 5 2 2.95e-05 0
3 -2 0 5 4 1.975e-05 0
3 -2 0 5 5 2e-05 0
3 -2 0 6 3 0.00017975 0
3 -2 0 6 6 -0.002566 0
3 -1 0 1 1 -3.1e-05 0
3 -1 0 1 2 -9.5e-05 0
3 -1 0 2 1 -9.5e-05 0
3 -1 0 2 2 -1.4e-05 0
3 -1 0 3 3 -0.002851 0
3 -1 0 4 1 0.0005275 0
3 -1 0 4 2 0.0003645 0
3 -1 0 4 4 -1.5e-05 0
3 -1 0 4 5 -9.5e-05 0
3 -1 0 5 1 0.00020775 0
3 -1 0 5 2 -0.00012125 0
3 -1 0 5 4 -9.5e-05 0
3 -1 0 5 5 9e-06 0
3 -1 0 6 3 -0.002491 0
3 -1 0 6 6 -0.003641 0
3 0 0 1 1 -3.55e-05 0
3 0 0 1 2 0.00012175 0
3 0 0 2 1 0.00012175 0
3 0 0 2 2 1e-06 0
3 0 0 3 3 -0.0045375 0
3 0 0 4 1 -0.00012125 0
3 0 0 4 2 0.0003645 0
3 0 0 4 4 1e-06 0
3 0 0 4 5 0.00012175 0
3 0 0 5 1 0.00020775 0
3 0 0 5 2 0.0005275 0
3 0 0 5 4 0.00012175 0
3 0 0 5 5 -3.55e-05 0
3 0 0 6 3 -0.002491 0
3 0 0 6 6 -0.0045375 0
3 1 0 1 1 9e-06 0
3 1 0 1 2 -9.5e-05 0
3 1 0 2 1 -9.5e-05 0
3 1 0 2 2 -1.5e-05 0
3 1 0 3 3 -0.003641 0
3 1 0 4 1 2.95e-05 0
3 1 0 4 2 -0.00018875 0
3 1 0 4 4 -1.4e-05 0
3 1 0 4 5 -9.5e-05 0
3 1 0 5 1 -5.4e-05 0
3 1 0 5 2 -0.000684 0
3 1 0 5 4 -9.5e-05 0
3 1 0 5 5 -3.1e-05 0
3 1 0 6 3 0.00017975 0
3 1 0 6 6 -0.002851 0
3 2 0 1 1 2e-05 0
3 2 0 1 2 1.975e-05 0
3 2 0 2 1 1.975e-05 0
3 2 0 2 2 -0.000169 0
3 2 0 3 3 -0.002566 0
3 2 0 4 1 2e-05 0
3 2 0 4 2 -4e-05 0
3 2 0 4 4 -9e-06 0
3 2 0 4 5 -4.075e-05 0
3 2 0 5 1 4e-05 0
3 2 0 5 2 -0.000253 0
3 2 0 5 4 -4.075e-05 0
3 2 0 5 5 -0.000157 0
3 2 0 6 3 0.00196875 0
3 2 0 6 6 -0.001102 0
3 3 0 1 1 3.9e-05 0
3 3 0 1 2 1.5e-06 0
3 3 0 2 1 1.5e-06 0
3 3 0 2 2 7.4e-05 0
3 3 0 3 3 -0.001709 0
3 3 0 4 4 3.9e-05 0
3 3 0 4 5 -1.5e-06 0
3 3 0 5 4 -1.5e-06 0
3 3 0 5 5 7.4e-05 0
3 3 0 6 6 -0.001709 0
